
  ___ ___ ___ _ _ _  
 |   |   |_  | | | | 
 | | | | | . | | | | 
 |__ |  _|___|_____|  25.7.0
 |___|_|             

User:   ankitapuri@Ankitas-MacBook-Air-2.local
Date:   Mon Feb 16 18:29:37 2026
Arch:   x86_64
Pid:    27709
CWD:    /Users/ankitapuri/Desktop/cat-adsorption-dft
Python: 3.10.19
gpaw:   /opt/miniconda3/envs/gpaw-x64/lib/python3.10/site-packages/gpaw
_gpaw:  /opt/miniconda3/envs/gpaw-x64/lib/python3.10/site-packages/
        _gpaw.cpython-310-darwin.so
ase:    /opt/miniconda3/envs/gpaw-x64/lib/python3.10/site-packages/ase (version 3.27.0)
numpy:  /opt/miniconda3/envs/gpaw-x64/lib/python3.10/site-packages/numpy (version 2.2.6)
scipy:  /opt/miniconda3/envs/gpaw-x64/lib/python3.10/site-packages/scipy (version 1.15.2)
libxc:  7.0.0
units:  Angstrom and eV
cores: 1
OpenMP: True
OMP_NUM_THREADS: 1

Input parameters:
  kpts: [1 1 1]
  mode: {ecut: 400.0,
         name: pw}
  occupations: {fixmagmom: False,
                name: fermi-dirac,
                width: 0.1}
  symmetry: off
  xc: PBE

System changes: positions, numbers, cell, pbc, initial_charges, initial_magmoms 

Initialize ...

species:
  C:
    name: Carbon
    id: 4aa54d4b901d75f77cc0ea3eec22967b
    Z: 6.0
    valence: 4
    core: 2
    charge: 0.0
    file: /opt/miniconda3/envs/gpaw-x64/lib/python3.10/site-packages/gpaw_data/setups/C.PBE.gz
    compensation charges: {type: gauss,
                           rc: 0.20,
                           lmax: 2}
    cutoffs: {filter: 1.14,
              core: 1.14}
    projectors:
      #              energy  rcut
      - 2s(2.00)   -13.751   0.635
      - 2p(2.00)    -5.284   0.635
      -  s          13.461   0.635
      -  p          21.927   0.635
      -  d           0.000   0.635
  
    # Using partial waves for C as LCAO basis

  O:
    name: Oxygen
    id: 32ecd46bf208036f09c70b0ec9a88b78
    Z: 8.0
    valence: 6
    core: 2
    charge: 0.0
    file: /opt/miniconda3/envs/gpaw-x64/lib/python3.10/site-packages/gpaw_data/setups/O.PBE.gz
    compensation charges: {type: gauss,
                           rc: 0.21,
                           lmax: 2}
    cutoffs: {filter: 1.17,
              core: 0.83}
    projectors:
      #              energy  rcut
      - 2s(2.00)   -23.961   0.688
      - 2p(4.00)    -9.029   0.598
      -  s           3.251   0.688
      -  p          18.182   0.598
      -  d           0.000   0.619
  
    # Using partial waves for O as LCAO basis

Reference energy: -3068.480417  # eV

Spin-paired calculation

Convergence criteria:
 Maximum [total energy] change in last 3 cyles: 0.0005 eV / valence electron
 Maximum integral of absolute [dens]ity change: 0.0001 electrons / valence electron
 Maximum integral of absolute [eigenst]ate change: 4e-08 eV^2 / valence electron
 Maximum number of scf [iter]ations: 333
 (Square brackets indicate name in SCF output, whereas a 'c' in
 the SCF output indicates the quantity has converged.)

Symmetries present (total): 1

  ( 1  0  0)
  ( 0  1  0)
  ( 0  0  1)

1 k-point (Gamma)
1 k-point in the irreducible part of the Brillouin zone
       k-points in crystal coordinates                weights
   0:     0.00000000    0.00000000    0.00000000          1/1

Wave functions: Plane wave expansion
  Cutoff energy: 400.000 eV
  Number of coefficients: 61445 (reduced to 30723)
  Pulay-stress correction: 0.000000 eV/Ang^3 (de/decut=0.000000)
  Using FFTW library
  ScaLapack parameters: grid=1x1, blocksize=None
  Wavefunction extrapolation:
    Improved wavefunction reuse through dual PAW basis 

Occupation numbers: Fermi-Dirac:
  width: 0.1000  # eV
 

Eigensolver
   Davidson(niter=2) 

Densities:
  Coarse grid: 70*70*70 grid
  Fine grid: 140*140*140 grid
  Total Charge: 0.000000 

Density mixing:
  Method: separate
  Backend: pulay
  Linear mixing parameter: 0.05
  old densities: 5
  Damping of long wavelength oscillations: 50 

Hamiltonian:
  XC and Coulomb potentials evaluated on a 140*140*140 grid
  Using the PBE Exchange-Correlation functional
  External potential:
    NoExternalPotential
 

XC parameters: PBE with 2 nearest neighbor stencil

Memory estimate:
  Process memory now: 286.12 MiB
  Calculator: 243.48 MiB
    Density: 175.58 MiB
      Arrays: 68.04 MiB
      Localized functions: 81.37 MiB
      Mixer: 26.17 MiB
    Hamiltonian: 46.47 MiB
      Arrays: 44.49 MiB
      XC: 0.00 MiB
      Poisson: 0.00 MiB
      vbar: 1.99 MiB
    Wavefunctions: 21.43 MiB
      Arrays psit_nG: 3.75 MiB
      Eigensolver: 6.10 MiB
      Projections: 0.00 MiB
      Projectors: 4.45 MiB
      PW-descriptor: 7.12 MiB

Total number of cores used: 1
OpenMP threads: 8

Number of atoms: 2
Number of atomic orbitals: 8
Number of bands in calculation: 8
Number of valence electrons: 10
Bands to converge: occupied

... initialized

Initializing position-dependent things.

Density initialized from atomic densities
Creating initial wave functions:
  8 bands from LCAO basis set

          .------------------------------------.  
         /|                                    |  
        / |                                    |  
       /  |                                    |  
      /   |                                    |  
     /    |                                    |  
    /     |                                    |  
   /      |                                    |  
  /       |                                    |  
 *        |                                    |  
 |        |                                    |  
 |        |                                    |  
 |        |                                    |  
 |        |                                    |  
 |        |                                    |  
 |        |                                    |  
 |        |                                    |  
 |        |                                    |  
 |        .------------------------------------.  
 |       /                                    /   
 |      /                                    /    
 |     /                                    /     
 |    /                                    /      
 |   /                                    /       
 |  /                                    /        
 | /                                    /         
 O/                                    /          
 C------------------------------------*           

Atomic positions and initial magnetic moments

Positions:
   0 C      0.000000    0.000000    0.000000    ( 0.0000,  0.0000,  0.0000)
   1 O      0.000000    0.000000    1.130000    ( 0.0000,  0.0000,  0.0000)

Unit cell:
           periodic     x           y           z      points  spacing
  1. axis:    no    15.000000    0.000000    0.000000    70     0.2143
  2. axis:    no     0.000000   15.000000    0.000000    70     0.2143
  3. axis:    no     0.000000    0.000000   15.000000    70     0.2143

  Lengths:  15.000000  15.000000  15.000000
  Angles:   90.000000  90.000000  90.000000

Effective grid spacing dv^(1/3) = 0.2143

     iter     time        total  log10-change:
                         energy   eigst   dens
iter:   1 18:29:40   -13.720192
iter:   2 18:29:41   -13.686812   -1.15  -0.91
iter:   3 18:29:42   -13.302755   -1.47  -0.93
iter:   4 18:29:43   -13.247078   -1.91  -1.23
iter:   5 18:29:43   -13.213572   -1.71  -1.43
iter:   6 18:29:44   -13.217902   -2.78  -1.73
iter:   7 18:29:45   -13.193710   -2.43  -1.70
iter:   8 18:29:46   -13.192794   -3.43  -2.38
iter:   9 18:29:46   -13.192731c  -4.80  -2.77
iter:  10 18:29:47   -13.192840c  -4.58  -2.84
iter:  11 18:29:48   -13.192742c  -4.82  -2.94
iter:  12 18:29:49   -13.192742c  -6.20  -3.60
iter:  13 18:29:50   -13.192741c  -6.24  -3.57
iter:  14 18:29:50   -13.192741c  -6.37  -3.71
iter:  15 18:29:51   -13.192743c  -6.45  -3.70
iter:  16 18:29:52   -13.192740c  -6.76  -3.59
iter:  17 18:29:53   -13.192740c  -7.15  -3.84
iter:  18 18:29:54   -13.192740c  -7.13  -4.14c
iter:  19 18:29:54   -13.192740c  -7.85c -4.53c

Converged after 19 iterations.

Dipole moment: (0.000000, 0.000000, -1.547382) |e|*Ang

Energy contributions relative to reference atoms: (reference = -3068.480417)

Kinetic:         +8.191528
Potential:      -10.399937
External:        +0.000000
XC:             -10.864865
Entropy (-ST):   -0.000000
Local:           -0.119465
SIC:             +0.000000
--------------------------
Free energy:    -13.192740
Extrapolated:   -13.192740

 Band  Eigenvalues  Occupancy
    0    -29.51084    2.00000
    1    -14.15146    2.00000
    2    -11.77929    2.00000
    3    -11.77929    2.00000
    4     -8.95754    2.00000
    5     -1.92939    0.00000
    6     -1.92939    0.00000
    7     -0.22722    0.00000

Fermi level: -6.20141

Gap: 7.028 eV
Transition (v -> c):
  (s=0, k=0, n=4, [0.00, 0.00, 0.00]) -> (s=0, k=0, n=5, [0.00, 0.00, 0.00])
No difference between direct/indirect transitions
Writing to outputs/co_gas.gpw (mode='')

Timing:                              incl.     excl.
-----------------------------------------------------------
Hamiltonian:                         0.565     0.003   0.0% |
 Atomic:                             0.027     0.001   0.0% |
  XC Correction:                     0.026     0.026   0.1% |
 Calculate atomic Hamiltonians:      0.035     0.035   0.2% |
 Communicate:                        0.000     0.000   0.0% |
 Initialize Hamiltonian:             0.000     0.000   0.0% |
 Poisson:                            0.007     0.007   0.0% |
 XC 3D grid:                         0.493     0.493   2.8% ||
LCAO initialization:                 0.059     0.027   0.2% |
 LCAO eigensolver:                   0.005     0.000   0.0% |
  Calculate projections:             0.000     0.000   0.0% |
  DenseAtomicCorrection:             0.000     0.000   0.0% |
  Distribute overlap matrix:         0.000     0.000   0.0% |
  Orbital Layouts:                   0.002     0.002   0.0% |
  Potential matrix:                  0.003     0.003   0.0% |
 LCAO to grid:                       0.024     0.024   0.1% |
 Set positions (LCAO WFS):           0.003     0.000   0.0% |
  Basic WFS set positions:           0.000     0.000   0.0% |
  Basis functions set positions:     0.000     0.000   0.0% |
  P tci:                             0.001     0.001   0.0% |
  ST tci:                            0.001     0.001   0.0% |
  mktci:                             0.001     0.001   0.0% |
PWDescriptor:                        0.315     0.315   1.8% ||
SCF-cycle:                          14.415     0.011   0.1% |
 Davidson:                           3.354     0.499   2.8% ||
  Apply H:                           0.618     0.608   3.4% ||
   HMM T:                            0.009     0.009   0.1% |
  Subspace diag:                     0.730     0.001   0.0% |
   calc_h_matrix:                    0.687     0.030   0.2% |
    Apply H:                         0.657     0.647   3.6% ||
     HMM T:                          0.010     0.010   0.1% |
   diagonalize:                      0.003     0.003   0.0% |
   rotate_psi:                       0.039     0.039   0.2% |
  calc. matrices:                    1.435     0.169   0.9% |
   Apply H:                          1.266     1.235   6.9% |--|
    HMM T:                           0.030     0.030   0.2% |
  diagonalize:                       0.006     0.006   0.0% |
  rotate_psi:                        0.066     0.066   0.4% |
 Density:                            1.749     0.000   0.0% |
  Atomic density matrices:           0.006     0.006   0.0% |
  Mix:                               1.434     1.434   8.0% |--|
  Multipole moments:                 0.001     0.001   0.0% |
  Pseudo density:                    0.307     0.307   1.7% ||
   Symmetrize density:               0.000     0.000   0.0% |
 Hamiltonian:                        9.293     0.062   0.3% |
  Atomic:                            0.534     0.007   0.0% |
   XC Correction:                    0.527     0.527   2.9% ||
  Calculate atomic Hamiltonians:     0.720     0.720   4.0% |-|
  Communicate:                       0.000     0.000   0.0% |
  Poisson:                           0.087     0.087   0.5% |
  XC 3D grid:                        7.889     7.889  44.1% |-----------------|
 Orthonormalize:                     0.009     0.000   0.0% |
  calc_s_matrix:                     0.001     0.001   0.0% |
  inverse-cholesky:                  0.000     0.000   0.0% |
  projections:                       0.003     0.003   0.0% |
  rotate_psi_s:                      0.004     0.004   0.0% |
Set symmetry:                        0.000     0.000   0.0% |
Other:                               2.515     2.515  14.1% |-----|
-----------------------------------------------------------
Total:                                        17.870 100.0%

Memory usage: 785.03 MiB
Date: Mon Feb 16 18:29:54 2026
