
  ___ ___ ___ _ _ _  
 |   |   |_  | | | | 
 | | | | | . | | | | 
 |__ |  _|___|_____|  25.7.0
 |___|_|             

User:   ankitapuri@Ankitas-MacBook-Air-2.local
Date:   Wed Feb 18 21:17:13 2026
Arch:   x86_64
Pid:    73692
CWD:    /Users/ankitapuri/Desktop/cat-adsorption-dft
Python: 3.10.19
gpaw:   /opt/miniconda3/envs/gpaw-x64/lib/python3.10/site-packages/gpaw
_gpaw:  /opt/miniconda3/envs/gpaw-x64/lib/python3.10/site-packages/
        _gpaw.cpython-310-darwin.so
ase:    /opt/miniconda3/envs/gpaw-x64/lib/python3.10/site-packages/ase (version 3.27.0)
numpy:  /opt/miniconda3/envs/gpaw-x64/lib/python3.10/site-packages/numpy (version 2.2.6)
scipy:  /opt/miniconda3/envs/gpaw-x64/lib/python3.10/site-packages/scipy (version 1.15.2)
libxc:  7.0.0
units:  Angstrom and eV
cores: 1
OpenMP: True
OMP_NUM_THREADS: 1

Input parameters:
  kpts: [4 4 1]
  mode: {ecut: 400.0,
         name: pw}
  occupations: {fixmagmom: False,
                name: fermi-dirac,
                width: 0.1}
  symmetry: off
  xc: PBE

System changes: positions, numbers, cell, pbc, initial_charges, initial_magmoms 

Initialize ...

species:
  Pt:
    name: Platinum
    id: 5ed695806aff0c961dba1a84acd7f4b2
    Z: 78.0
    valence: 16
    core: 62
    charge: 0.0
    file: /opt/miniconda3/envs/gpaw-x64/lib/python3.10/site-packages/gpaw_data/setups/Pt.PBE.gz
    compensation charges: {type: gauss,
                           rc: 0.41,
                           lmax: 2}
    cutoffs: {filter: 2.26,
              core: 2.26}
    projectors:
      #              energy  rcut
      - 6s(1.00)    -5.628   1.307
      - 5p(6.00)   -56.051   1.371
      - 6p(0.00)    -0.845   1.371
      - 5d(9.00)    -6.153   1.307
      -  s          21.583   1.307
      -  d          21.058   1.307
  
    # Using partial waves for Pt as LCAO basis

  C:
    name: Carbon
    id: 4aa54d4b901d75f77cc0ea3eec22967b
    Z: 6.0
    valence: 4
    core: 2
    charge: 0.0
    file: /opt/miniconda3/envs/gpaw-x64/lib/python3.10/site-packages/gpaw_data/setups/C.PBE.gz
    compensation charges: {type: gauss,
                           rc: 0.20,
                           lmax: 2}
    cutoffs: {filter: 1.14,
              core: 1.14}
    projectors:
      #              energy  rcut
      - 2s(2.00)   -13.751   0.635
      - 2p(2.00)    -5.284   0.635
      -  s          13.461   0.635
      -  p          21.927   0.635
      -  d           0.000   0.635
  
    # Using partial waves for C as LCAO basis

  O:
    name: Oxygen
    id: 32ecd46bf208036f09c70b0ec9a88b78
    Z: 8.0
    valence: 6
    core: 2
    charge: 0.0
    file: /opt/miniconda3/envs/gpaw-x64/lib/python3.10/site-packages/gpaw_data/setups/O.PBE.gz
    compensation charges: {type: gauss,
                           rc: 0.21,
                           lmax: 2}
    cutoffs: {filter: 1.17,
              core: 0.83}
    projectors:
      #              energy  rcut
      - 2s(2.00)   -23.961   0.688
      - 2p(4.00)    -9.029   0.598
      -  s           3.251   0.688
      -  p          18.182   0.598
      -  d           0.000   0.619
  
    # Using partial waves for O as LCAO basis

Reference energy: -8009074.284696  # eV

Spin-paired calculation

Convergence criteria:
 Maximum [total energy] change in last 3 cyles: 0.0005 eV / valence electron
 Maximum integral of absolute [dens]ity change: 0.0001 electrons / valence electron
 Maximum integral of absolute [eigenst]ate change: 4e-08 eV^2 / valence electron
 Maximum number of scf [iter]ations: 333
 (Square brackets indicate name in SCF output, whereas a 'c' in
 the SCF output indicates the quantity has converged.)

Symmetries present (total): 1

  ( 1  0  0)
  ( 0  1  0)
  ( 0  0  1)

16 k-points: 4 x 4 x 1 Monkhorst-Pack grid
16 k-points in the irreducible part of the Brillouin zone
       k-points in crystal coordinates                weights
   0:    -0.37500000   -0.37500000    0.00000000          1/16
   1:    -0.37500000   -0.12500000    0.00000000          1/16
   2:    -0.37500000    0.12500000    0.00000000          1/16
   3:    -0.37500000    0.37500000    0.00000000          1/16
   4:    -0.12500000   -0.37500000    0.00000000          1/16
   5:    -0.12500000   -0.12500000    0.00000000          1/16
   6:    -0.12500000    0.12500000    0.00000000          1/16
   7:    -0.12500000    0.37500000    0.00000000          1/16
   8:     0.12500000   -0.37500000    0.00000000          1/16
   9:     0.12500000   -0.12500000    0.00000000          1/16
          ...
  15:     0.37500000    0.37500000    0.00000000          1/16

Wave functions: Plane wave expansion
  Cutoff energy: 400.000 eV
  Number of coefficients (min, max): 17703, 17847
  Pulay-stress correction: 0.000000 eV/Ang^3 (de/decut=0.000000)
  Using FFTW library
  ScaLapack parameters: grid=1x1, blocksize=None
  Wavefunction extrapolation:
    Improved wavefunction reuse through dual PAW basis 

Occupation numbers: Fermi-Dirac:
  width: 0.1000  # eV
 

Eigensolver
   Davidson(niter=2) 

Densities:
  Coarse grid: 27*27*175 grid
  Fine grid: 54*54*350 grid
  Total Charge: 0.000000 

Density mixing:
  Method: separate
  Backend: pulay
  Linear mixing parameter: 0.05
  old densities: 5
  Damping of long wavelength oscillations: 50 

Hamiltonian:
  XC and Coulomb potentials evaluated on a 54*54*350 grid
  Using the PBE Exchange-Correlation functional
  External potential:
    NoExternalPotential
 

XC parameters: PBE with 2 nearest neighbor stencil

Memory estimate:
  Process memory now: 202.23 MiB
  Calculator: 921.57 MiB
    Density: 63.47 MiB
      Arrays: 25.31 MiB
      Localized functions: 28.43 MiB
      Mixer: 9.73 MiB
    Hamiltonian: 17.31 MiB
      Arrays: 16.55 MiB
      XC: 0.00 MiB
      Poisson: 0.00 MiB
      vbar: 0.77 MiB
    Wavefunctions: 840.78 MiB
      Arrays psit_nG: 714.58 MiB
      Eigensolver: 50.13 MiB
      Projections: 12.57 MiB
      Projectors: 54.28 MiB
      PW-descriptor: 9.22 MiB

Total number of cores used: 1
OpenMP threads: 8

Number of atoms: 18
Number of atomic orbitals: 200
Number of bands in calculation: 164
Number of valence electrons: 266
Bands to converge: occupied

... initialized

Initializing position-dependent things.

Density initialized from atomic densities
Creating initial wave functions:
  164 bands from LCAO basis set

                                
                                
                                
                                
                                
                                
       O                        
                                
       C    Pt     Pt           
                                
       Pt    PPt    Pt          
                                
        Pt     Pt               
                Pt    Pt        
                                
           Pt     Pt            
                                
            Pt     Pt           
       Pt     Pt                
                                
                                
                                
                                

Atomic positions and initial magnetic moments

Positions:
   0 Pt     0.000000    0.000000   13.500000    ( 0.0000,  0.0000,  0.0000)
   1 Pt     2.771859    0.000000   13.500000    ( 0.0000,  0.0000,  0.0000)
   2 Pt     1.385929    2.400500   13.500000    ( 0.0000,  0.0000,  0.0000)
   3 Pt     4.157788    2.400500   13.500000    ( 0.0000,  0.0000,  0.0000)
   4 Pt     1.385929    0.800167   15.763213    ( 0.0000,  0.0000,  0.0000)
   5 Pt     4.157788    0.800167   15.763213    ( 0.0000,  0.0000,  0.0000)
   6 Pt     2.771859    3.200667   15.763213    ( 0.0000,  0.0000,  0.0000)
   7 Pt     5.543717    3.200667   15.763213    ( 0.0000,  0.0000,  0.0000)
   8 Pt     0.000000    1.600333   18.026426    ( 0.0000,  0.0000,  0.0000)
   9 Pt     2.771859    1.600333   18.026426    ( 0.0000,  0.0000,  0.0000)
  10 Pt     1.385929    4.000833   18.026426    ( 0.0000,  0.0000,  0.0000)
  11 Pt     4.157788    4.000833   18.026426    ( 0.0000,  0.0000,  0.0000)
  12 Pt     0.000000    0.000000   20.289639    ( 0.0000,  0.0000,  0.0000)
  13 Pt     2.771859    0.000000   20.289639    ( 0.0000,  0.0000,  0.0000)
  14 Pt     1.385929    2.400500   20.289639    ( 0.0000,  0.0000,  0.0000)
  15 Pt     4.157788    2.400500   20.289639    ( 0.0000,  0.0000,  0.0000)
  16 C      0.000000    0.000000   22.139639    ( 0.0000,  0.0000,  0.0000)
  17 O      0.000000    0.000000   23.289639    ( 0.0000,  0.0000,  0.0000)

Unit cell:
           periodic     x           y           z      points  spacing
  1. axis:    yes    5.543717    0.000000    0.000000    27     0.1778
  2. axis:    yes    2.771859    4.801000    0.000000    27     0.1778
  3. axis:    yes    0.000000    0.000000   36.789639   175     0.2102

  Lengths:   5.543717   5.543717  36.789639
  Angles:   90.000000  90.000000  60.000000

Effective grid spacing dv^(1/3) = 0.1973

     iter     time        total  log10-change:
                         energy   eigst   dens
iter:   1 21:19:33  -119.998796
iter:   2 21:20:44  -118.753460   -1.16  -1.40
iter:   3 21:22:04  -123.022026   -1.70  -1.42
iter:   4 21:23:32  -116.543751   -1.83  -1.34
iter:   5 21:24:54  -113.182465   -1.76  -1.49
iter:   6 21:26:07  -113.374106   -2.19  -1.75
iter:   7 21:27:21  -113.084093   -2.03  -1.82
iter:   8 21:28:29  -112.471849   -2.91  -1.99
iter:   9 21:29:39  -112.396300   -3.38  -2.15
iter:  10 21:30:47  -112.393699c  -3.39  -2.22
iter:  11 21:31:55  -112.414286c  -2.93  -2.27
iter:  12 21:33:04  -112.300470c  -3.54  -2.37
iter:  13 21:34:12  -112.288394c  -3.82  -2.67
iter:  14 21:35:21  -112.283637c  -3.99  -2.75
iter:  15 21:36:29  -112.281089c  -4.21  -2.90
iter:  16 21:37:37  -112.280340c  -4.55  -3.06
iter:  17 21:38:46  -112.279923c  -4.95  -3.15
iter:  18 21:39:54  -112.281165c  -4.87  -3.21
iter:  19 21:41:02  -112.279919c  -5.14  -3.23
iter:  20 21:42:10  -112.280138c  -5.40  -3.47
iter:  21 21:43:17  -112.280143c  -5.50  -3.52
iter:  22 21:44:26  -112.280327c  -5.43  -3.63
iter:  23 21:45:34  -112.280196c  -5.54  -3.81
iter:  24 21:46:42  -112.280301c  -5.97  -3.96
iter:  25 21:47:50  -112.280205c  -6.44  -3.98
iter:  26 21:48:58  -112.280164c  -6.53  -4.10c
iter:  27 21:50:07  -112.280157c  -6.56  -4.22c
iter:  28 21:51:14  -112.280166c  -7.03  -4.38c
iter:  29 21:52:22  -112.280187c  -7.21  -4.52c
iter:  30 21:53:30  -112.280163c  -7.34  -4.53c
iter:  31 21:54:38  -112.280201c  -7.26  -4.48c
iter:  32 21:55:46  -112.280189c  -7.79c -4.43c

Converged after 32 iterations.

Dipole moment: (-0.011651, -0.006727, 0.058137) |e|*Ang

Energy contributions relative to reference atoms: (reference = -8009074.284696)

Kinetic:        -96.308933
Potential:      +63.498215
External:        +0.000000
XC:             -70.550003
Entropy (-ST):   -0.894607
Local:           -8.472165
SIC:             +0.000000
--------------------------
Free energy:   -112.727492
Extrapolated:  -112.280189

Showing only first 2 kpts
 Kpt  Band  Eigenvalues  Occupancy
  0   131     -1.02324    1.29370
  0   132     -1.00932    1.22888
  0   133     -0.94440    0.90869
  0   134     -0.89702    0.68286

  1   131     -1.10273    1.60442
  1   132     -1.07261    1.50013
  1   133     -0.99818    1.17548
  1   134     -0.93916    0.88276


Fermi level: -0.96271

No gap
No difference between direct/indirect transitions

Forces in eV/Ang:
  0 Pt   -0.00435   -0.00251   -0.49210
  1 Pt   -0.01784    0.05418   -0.51539
  2 Pt    0.03800   -0.04254   -0.51539
  3 Pt   -0.05564   -0.03212   -0.51495
  4 Pt   -0.02884   -0.01665    0.21449
  5 Pt   -0.02319   -0.01608    0.21486
  6 Pt   -0.02552   -0.01204    0.21486
  7 Pt   -0.02948   -0.01702   -0.07090
  8 Pt    0.02197   -0.07034   -0.23143
  9 Pt    0.02034    0.01174   -0.12589
 10 Pt    0.10131    0.05849   -0.24223
 11 Pt   -0.04994    0.05419   -0.23143
 12 Pt    0.00466    0.00269    1.19157
 13 Pt    0.02153   -0.00180    0.24015
 14 Pt    0.00921    0.01955    0.24015
 15 Pt    0.01290    0.00745    0.24694
 16 C     0.00754    0.00435   -0.74532
 17 O    -0.00261   -0.00151    1.22090

System changes: positions 

Initializing position-dependent things.

Density initialized from wave functions
                                
                                
                                
                                
                                
                                
       O                        
                                
       C    Pt     Pt           
                                
       Pt    PPt    Pt          
                                
        Pt     Pt               
                Pt              
                      Pt        
           Pt     Pt            
                                
            Pt     Pt           
       Pt     Pt                
                                
                                
                                
                                

Atomic positions and initial magnetic moments

Positions:
   0 Pt     0.000000    0.000000   13.500000    ( 0.0000,  0.0000,  0.0000)
   1 Pt     2.771859    0.000000   13.500000    ( 0.0000,  0.0000,  0.0000)
   2 Pt     1.385929    2.400500   13.500000    ( 0.0000,  0.0000,  0.0000)
   3 Pt     4.157788    2.400500   13.500000    ( 0.0000,  0.0000,  0.0000)
   4 Pt     1.385517    0.799929   15.766277    ( 0.0000,  0.0000,  0.0000)
   5 Pt     4.157457    0.799937   15.766282    ( 0.0000,  0.0000,  0.0000)
   6 Pt     2.771494    3.200495   15.766282    ( 0.0000,  0.0000,  0.0000)
   7 Pt     5.543296    3.200423   15.762200    ( 0.0000,  0.0000,  0.0000)
   8 Pt     0.000314    1.599328   18.023120    ( 0.0000,  0.0000,  0.0000)
   9 Pt     2.772149    1.600501   18.024628    ( 0.0000,  0.0000,  0.0000)
  10 Pt     1.387377    4.001669   18.022966    ( 0.0000,  0.0000,  0.0000)
  11 Pt     4.157074    4.001607   18.023120    ( 0.0000,  0.0000,  0.0000)
  12 Pt     0.000067    0.000038   20.306662    ( 0.0000,  0.0000,  0.0000)
  13 Pt     2.772166   -0.000026   20.293070    ( 0.0000,  0.0000,  0.0000)
  14 Pt     1.386061    2.400779   20.293070    ( 0.0000,  0.0000,  0.0000)
  15 Pt     4.157972    2.400606   20.293167    ( 0.0000,  0.0000,  0.0000)
  16 C      0.000108    0.000062   22.128992    ( 0.0000,  0.0000,  0.0000)
  17 O     -0.000037   -0.000022   23.307081    ( 0.0000,  0.0000,  0.0000)

Unit cell:
           periodic     x           y           z      points  spacing
  1. axis:    yes    5.543717    0.000000    0.000000    27     0.1778
  2. axis:    yes    2.771859    4.801000    0.000000    27     0.1778
  3. axis:    yes    0.000000    0.000000   36.789639   175     0.2102

  Lengths:   5.543717   5.543717  36.789639
  Angles:   90.000000  90.000000  60.000000

Effective grid spacing dv^(1/3) = 0.1973

     iter     time        total  log10-change:
                         energy   eigst   dens
iter:   1 21:57:12  -113.027834   -2.66
iter:   2 21:58:20  -120.291533   -1.91  -2.09
iter:   3 21:59:28  -112.397469   -2.34  -1.60
iter:   4 22:00:36  -112.482523   -2.98  -2.53
iter:   5 22:01:45  -112.308924   -3.96  -2.36
iter:   6 22:02:53  -112.296419   -4.31  -2.86
iter:   7 22:04:01  -112.294065c  -5.09  -3.02
iter:   8 22:05:09  -112.291650c  -4.42  -3.10
iter:   9 22:06:17  -112.290057c  -4.74  -3.20
iter:  10 22:07:25  -112.289708c  -5.55  -3.50
iter:  11 22:08:33  -112.289514c  -5.61  -3.57
iter:  12 22:09:41  -112.289334c  -5.92  -3.74
iter:  13 22:10:49  -112.289328c  -6.49  -3.88
iter:  14 22:11:57  -112.289858c  -6.18  -4.00
iter:  15 22:13:06  -112.289375c  -6.38  -3.62
iter:  16 22:14:14  -112.289431c  -7.24  -4.17c
iter:  17 22:15:22  -112.289414c  -7.20  -4.18c
iter:  18 22:16:30  -112.289418c  -7.61c -4.32c

Converged after 18 iterations.

Dipole moment: (0.003285, 0.001897, 0.017225) |e|*Ang

Energy contributions relative to reference atoms: (reference = -8009074.284696)

Kinetic:        -99.399533
Potential:      +66.011441
External:        +0.000000
XC:             -69.946837
Entropy (-ST):   -0.892841
Local:           -8.508068
SIC:             +0.000000
--------------------------
Free energy:   -112.735838
Extrapolated:  -112.289418

Showing only first 2 kpts
 Kpt  Band  Eigenvalues  Occupancy
  0   131     -1.09300    1.29641
  0   132     -1.08165    1.24381
  0   133     -1.01285    0.90508
  0   134     -0.96675    0.68535

  1   131     -1.17162    1.60352
  1   132     -1.14128    1.49825
  1   133     -1.06765    1.17690
  1   134     -1.00852    0.88369


Fermi level: -1.03189

No gap
No difference between direct/indirect transitions

Forces in eV/Ang:
  0 Pt   -0.00489   -0.00282   -0.46283
  1 Pt   -0.01861    0.06348   -0.49283
  2 Pt    0.04567   -0.04786   -0.49283
  3 Pt   -0.06527   -0.03768   -0.49244
  4 Pt   -0.02212   -0.01277    0.14868
  5 Pt   -0.02497   -0.01255    0.14952
  6 Pt   -0.02335   -0.01535    0.14952
  7 Pt   -0.02699   -0.01558   -0.09549
  8 Pt    0.02093   -0.06033   -0.11161
  9 Pt    0.01762    0.01017   -0.04905
 10 Pt    0.08835    0.05101   -0.11997
 11 Pt   -0.04178    0.04829   -0.11160
 12 Pt    0.00749    0.00432    0.48445
 13 Pt    0.01987   -0.00903    0.18414
 14 Pt    0.00212    0.02172    0.18414
 15 Pt    0.02080    0.01201    0.19154
 16 C     0.00691    0.00399    2.43525
 17 O    -0.00218   -0.00126   -1.46281

System changes: positions 

Initializing position-dependent things.

Density initialized from wave functions
                                
                                
                                
                                
                                
                                
       O                        
                                
       C    Pt     Pt           
                                
       Pt    PPt    Pt          
                                
        Pt     Pt               
                Pt              
                      Pt        
           Pt     Pt            
                                
            Pt     Pt           
       Pt     Pt                
                                
                                
                                
                                

Atomic positions and initial magnetic moments

Positions:
   0 Pt     0.000000    0.000000   13.500000    ( 0.0000,  0.0000,  0.0000)
   1 Pt     2.771859    0.000000   13.500000    ( 0.0000,  0.0000,  0.0000)
   2 Pt     1.385929    2.400500   13.500000    ( 0.0000,  0.0000,  0.0000)
   3 Pt     4.157788    2.400500   13.500000    ( 0.0000,  0.0000,  0.0000)
   4 Pt     1.385077    0.799675   15.769414    ( 0.0000,  0.0000,  0.0000)
   5 Pt     4.157041    0.799690   15.769429    ( 0.0000,  0.0000,  0.0000)
   6 Pt     2.771072    3.200258   15.769429    ( 0.0000,  0.0000,  0.0000)
   7 Pt     5.542809    3.200142   15.760767    ( 0.0000,  0.0000,  0.0000)
   8 Pt     0.000684    1.598201   18.020154    ( 0.0000,  0.0000,  0.0000)
   9 Pt     2.772477    1.600690   18.023114    ( 0.0000,  0.0000,  0.0000)
  10 Pt     1.389013    4.002614   18.019834    ( 0.0000,  0.0000,  0.0000)
  11 Pt     4.156283    4.002492   18.020154    ( 0.0000,  0.0000,  0.0000)
  12 Pt     0.000171    0.000099   20.321161    ( 0.0000,  0.0000,  0.0000)
  13 Pt     2.772523   -0.000119   20.296733    ( 0.0000,  0.0000,  0.0000)
  14 Pt     1.386159    2.401135   20.296733    ( 0.0000,  0.0000,  0.0000)
  15 Pt     4.158262    2.400774   20.296952    ( 0.0000,  0.0000,  0.0000)
  16 C      0.000232    0.000134   22.143370    ( 0.0000,  0.0000,  0.0000)
  17 O     -0.000079   -0.000045   23.305160    ( 0.0000,  0.0000,  0.0000)

Unit cell:
           periodic     x           y           z      points  spacing
  1. axis:    yes    5.543717    0.000000    0.000000    27     0.1778
  2. axis:    yes    2.771859    4.801000    0.000000    27     0.1778
  3. axis:    yes    0.000000    0.000000   36.789639   175     0.2102

  Lengths:   5.543717   5.543717  36.789639
  Angles:   90.000000  90.000000  60.000000

Effective grid spacing dv^(1/3) = 0.1973

     iter     time        total  log10-change:
                         energy   eigst   dens
iter:   1 22:17:57  -112.699953   -2.80
iter:   2 22:19:05  -116.326027   -2.21  -2.24
iter:   3 22:20:13  -112.410324   -2.57  -1.74
iter:   4 22:21:21  -112.357033   -3.64  -2.55
iter:   5 22:22:29  -112.334671c  -3.88  -2.88
iter:   6 22:23:37  -112.335062c  -4.25  -3.15
iter:   7 22:24:45  -112.328216c  -4.89  -3.00
iter:   8 22:25:53  -112.329376c  -5.23  -3.36
iter:   9 22:27:01  -112.326977c  -5.29  -3.18
iter:  10 22:28:08  -112.326570c  -5.69  -3.52
iter:  11 22:29:17  -112.326213c  -5.91  -3.61
iter:  12 22:30:26  -112.326212c  -5.86  -3.91
iter:  13 22:31:33  -112.326308c  -6.48  -3.99
iter:  14 22:32:41  -112.326238c  -6.56  -4.01c
iter:  15 22:33:49  -112.326209c  -6.46  -3.98
iter:  16 22:34:59  -112.326215c  -7.06  -4.36c
iter:  17 22:36:08  -112.326207c  -7.50c -4.30c

Converged after 17 iterations.

Dipole moment: (0.023876, 0.013786, 0.035592) |e|*Ang

Energy contributions relative to reference atoms: (reference = -8009074.284696)

Kinetic:        -98.909632
Potential:      +65.663213
External:        +0.000000
XC:             -70.185358
Entropy (-ST):   -0.892569
Local:           -8.448146
SIC:             +0.000000
--------------------------
Free energy:   -112.772492
Extrapolated:  -112.326207

Showing only first 2 kpts
 Kpt  Band  Eigenvalues  Occupancy
  0   131     -1.06148    1.29622
  0   132     -1.05062    1.24592
  0   133     -0.98135    0.90497
  0   134     -0.93591    0.68822

  1   131     -1.13968    1.60204
  1   132     -1.10929    1.49632
  1   133     -1.03670    1.17946
  1   134     -0.97684    0.88270


Fermi level: -1.00041

No gap
No difference between direct/indirect transitions

Forces in eV/Ang:
  0 Pt   -0.00585   -0.00338   -0.44511
  1 Pt   -0.01886    0.07197   -0.48365
  2 Pt    0.05290   -0.05231   -0.48365
  3 Pt   -0.07416   -0.04282   -0.48429
  4 Pt   -0.01693   -0.00978    0.08277
  5 Pt   -0.02587   -0.00943    0.08316
  6 Pt   -0.02111   -0.01769    0.08316
  7 Pt   -0.02447   -0.01413   -0.09648
  8 Pt    0.01972   -0.04051    0.00437
  9 Pt    0.01579    0.00912    0.03571
 10 Pt    0.06683    0.03858   -0.00217
 11 Pt   -0.02522    0.03733    0.00437
 12 Pt    0.01051    0.00607    0.34860
 13 Pt    0.01786   -0.01035    0.13040
 14 Pt   -0.00003    0.02064    0.13040
 15 Pt    0.02358    0.01361    0.13851
 16 C     0.00675    0.00390    0.97016
 17 O    -0.00207   -0.00120    0.05166

System changes: positions 

Initializing position-dependent things.

Density initialized from wave functions
                                
                                
                                
                                
                                
                                
       O                        
                                
       C    Pt     Pt           
                                
       Pt    PPt    Pt          
                                
        Pt     Pt               
                Pt              
                      Pt        
           Pt     Pt            
                                
            Pt     Pt           
       Pt     Pt                
                                
                                
                                
                                

Atomic positions and initial magnetic moments

Positions:
   0 Pt     0.000000    0.000000   13.500000    ( 0.0000,  0.0000,  0.0000)
   1 Pt     2.771859    0.000000   13.500000    ( 0.0000,  0.0000,  0.0000)
   2 Pt     1.385929    2.400500   13.500000    ( 0.0000,  0.0000,  0.0000)
   3 Pt     4.157788    2.400500   13.500000    ( 0.0000,  0.0000,  0.0000)
   4 Pt     1.384212    0.799175   15.774717    ( 0.0000,  0.0000,  0.0000)
   5 Pt     4.156014    0.799207   15.774749    ( 0.0000,  0.0000,  0.0000)
   6 Pt     2.770141    3.199611   15.774749    ( 0.0000,  0.0000,  0.0000)
   7 Pt     5.541730    3.199519   15.757130    ( 0.0000,  0.0000,  0.0000)
   8 Pt     0.001527    1.596089   18.016941    ( 0.0000,  0.0000,  0.0000)
   9 Pt     2.773190    1.601102   18.022241    ( 0.0000,  0.0000,  0.0000)
  10 Pt     1.392272    4.004495   18.016292    ( 0.0000,  0.0000,  0.0000)
  11 Pt     4.154876    4.004278   18.016941    ( 0.0000,  0.0000,  0.0000)
  12 Pt     0.000519    0.000299   20.346737    ( 0.0000,  0.0000,  0.0000)
  13 Pt     2.773312   -0.000430   20.303674    ( 0.0000,  0.0000,  0.0000)
  14 Pt     1.386283    2.401973   20.303674    ( 0.0000,  0.0000,  0.0000)
  15 Pt     4.159086    2.401249   20.304208    ( 0.0000,  0.0000,  0.0000)
  16 C      0.000521    0.000301   22.165953    ( 0.0000,  0.0000,  0.0000)
  17 O     -0.000171   -0.000099   23.317442    ( 0.0000,  0.0000,  0.0000)

Unit cell:
           periodic     x           y           z      points  spacing
  1. axis:    yes    5.543717    0.000000    0.000000    27     0.1778
  2. axis:    yes    2.771859    4.801000    0.000000    27     0.1778
  3. axis:    yes    0.000000    0.000000   36.789639   175     0.2102

  Lengths:   5.543717   5.543717  36.789639
  Angles:   90.000000  90.000000  60.000000

Effective grid spacing dv^(1/3) = 0.1973

     iter     time        total  log10-change:
                         energy   eigst   dens
iter:   1 22:37:35  -112.571494   -2.62
iter:   2 22:38:43  -114.274835   -2.53  -2.35
iter:   3 22:39:51  -112.410787   -2.84  -1.89
iter:   4 22:41:01  -112.371575   -3.93  -2.60
iter:   5 22:42:09  -112.357065c  -3.97  -2.90
iter:   6 22:43:17  -112.357017c  -4.27  -3.14
iter:   7 22:44:25  -112.353221c  -4.97  -3.09
iter:   8 22:45:33  -112.354643c  -5.48  -3.37
iter:   9 22:46:42  -112.353392c  -5.23  -3.21
iter:  10 22:47:50  -112.352299c  -5.67  -3.39
iter:  11 22:48:57  -112.352090c  -6.15  -3.66
iter:  12 22:50:05  -112.352087c  -5.83  -3.87
iter:  13 22:51:13  -112.352141c  -6.38  -3.94
iter:  14 22:52:22  -112.352066c  -6.53  -4.04c
iter:  15 22:53:30  -112.352035c  -6.51  -3.96
iter:  16 22:54:37  -112.352052c  -7.27  -4.37c
iter:  17 22:55:45  -112.352046c  -7.42c -4.26c

Converged after 17 iterations.

Dipole moment: (0.065294, 0.037699, 0.046775) |e|*Ang

Energy contributions relative to reference atoms: (reference = -8009074.284696)

Kinetic:        -99.884028
Potential:      +66.575238
External:        +0.000000
XC:             -70.135727
Entropy (-ST):   -0.891976
Local:           -8.461540
SIC:             +0.000000
--------------------------
Free energy:   -112.798034
Extrapolated:  -112.352046

Showing only first 2 kpts
 Kpt  Band  Eigenvalues  Occupancy
  0   131     -1.04275    1.29666
  0   132     -1.03305    1.25184
  0   133     -0.96233    0.90408
  0   134     -0.91838    0.69415

  1   131     -1.12031    1.60033
  1   132     -1.08967    1.49334
  1   133     -1.01853    1.18271
  1   134     -0.95808    0.88307


Fermi level: -0.98158

No gap
No difference between direct/indirect transitions

Forces in eV/Ang:
  0 Pt   -0.00714   -0.00412   -0.40801
  1 Pt   -0.01950    0.08925   -0.46403
  2 Pt    0.06755   -0.06151   -0.46403
  3 Pt   -0.09209   -0.05316   -0.46647
  4 Pt   -0.00907   -0.00524   -0.01679
  5 Pt   -0.02499   -0.00490   -0.01624
  6 Pt   -0.01673   -0.01919   -0.01624
  7 Pt   -0.01908   -0.01102   -0.06365
  8 Pt    0.01610    0.00837    0.16292
  9 Pt    0.01282    0.00740    0.15172
 10 Pt    0.01567    0.00905    0.16022
 11 Pt    0.01530    0.00976    0.16292
 12 Pt    0.01608    0.00928    0.06502
 13 Pt    0.01431   -0.00944    0.05642
 14 Pt   -0.00102    0.01711    0.05642
 15 Pt    0.02642    0.01525    0.06481
 16 C     0.00647    0.00373   -0.04935
 17 O    -0.00216   -0.00125    1.08603

System changes: positions 

Initializing position-dependent things.

Density initialized from wave functions
                                
                                
                                
                                
                                
                                
       O                        
                                
       C    Pt     Pt           
                                
       Pt    PPt    Pt          
                                
        Pt     Pt               
                Pt              
                      Pt        
           Pt     Pt            
                                
            Pt     Pt           
       Pt     Pt                
                                
                                
                                
                                

Atomic positions and initial magnetic moments

Positions:
   0 Pt     0.000000    0.000000   13.500000    ( 0.0000,  0.0000,  0.0000)
   1 Pt     2.771859    0.000000   13.500000    ( 0.0000,  0.0000,  0.0000)
   2 Pt     1.385929    2.400500   13.500000    ( 0.0000,  0.0000,  0.0000)
   3 Pt     4.157788    2.400500   13.500000    ( 0.0000,  0.0000,  0.0000)
   4 Pt     1.383174    0.798576   15.779803    ( 0.0000,  0.0000,  0.0000)
   5 Pt     4.154544    0.798629   15.779867    ( 0.0000,  0.0000,  0.0000)
   6 Pt     2.768905    3.198626   15.779867    ( 0.0000,  0.0000,  0.0000)
   7 Pt     5.540308    3.198698   15.752496    ( 0.0000,  0.0000,  0.0000)
   8 Pt     0.002658    1.594191   18.016462    ( 0.0000,  0.0000,  0.0000)
   9 Pt     2.774139    1.601650   18.023964    ( 0.0000,  0.0000,  0.0000)
  10 Pt     1.395760    4.006509   18.015437    ( 0.0000,  0.0000,  0.0000)
  11 Pt     4.153798    4.006206   18.016462    ( 0.0000,  0.0000,  0.0000)
  12 Pt     0.001160    0.000669   20.373484    ( 0.0000,  0.0000,  0.0000)
  13 Pt     2.774361   -0.000898   20.311749    ( 0.0000,  0.0000,  0.0000)
  14 Pt     1.386403    2.403115   20.311749    ( 0.0000,  0.0000,  0.0000)
  15 Pt     4.160380    2.401996   20.312746    ( 0.0000,  0.0000,  0.0000)
  16 C      0.000927    0.000535   22.193744    ( 0.0000,  0.0000,  0.0000)
  17 O     -0.000304   -0.000176   23.342941    ( 0.0000,  0.0000,  0.0000)

Unit cell:
           periodic     x           y           z      points  spacing
  1. axis:    yes    5.543717    0.000000    0.000000    27     0.1778
  2. axis:    yes    2.771859    4.801000    0.000000    27     0.1778
  3. axis:    yes    0.000000    0.000000   36.789639   175     0.2102

  Lengths:   5.543717   5.543717  36.789639
  Angles:   90.000000  90.000000  60.000000

Effective grid spacing dv^(1/3) = 0.1973

     iter     time        total  log10-change:
                         energy   eigst   dens
iter:   1 22:57:12  -112.443575   -2.59
iter:   2 22:58:20  -112.628880   -3.20  -2.61
iter:   3 22:59:28  -112.451131   -3.42  -2.29
iter:   4 23:00:36  -112.382407   -4.25  -2.53
iter:   5 23:01:44  -112.378194c  -4.36  -3.04
iter:   6 23:02:52  -112.377581c  -4.41  -3.23
iter:   7 23:04:00  -112.377264c  -5.39  -3.41
iter:   8 23:05:08  -112.377290c  -5.81  -3.45
iter:   9 23:06:16  -112.384053c  -4.92  -3.48
iter:  10 23:07:24  -112.376529c  -5.26  -3.02
iter:  11 23:08:33  -112.376496c  -6.25  -3.80
iter:  12 23:09:41  -112.376478c  -6.26  -3.91
iter:  13 23:10:49  -112.376478c  -6.57  -3.96
iter:  14 23:11:57  -112.376436c  -6.55  -4.11c
iter:  15 23:13:04  -112.376476c  -6.95  -4.32c
iter:  16 23:14:13  -112.376464c  -7.05  -4.20c
iter:  17 23:15:22  -112.376422c  -7.16  -4.12c
iter:  18 23:16:29  -112.376426c  -8.20c -4.69c

Converged after 18 iterations.

Dipole moment: (0.104110, 0.060110, 0.050306) |e|*Ang

Energy contributions relative to reference atoms: (reference = -8009074.284696)

Kinetic:       -102.213821
Potential:      +68.555660
External:        +0.000000
XC:             -69.803401
Entropy (-ST):   -0.891607
Local:           -8.469062
SIC:             +0.000000
--------------------------
Free energy:   -112.822230
Extrapolated:  -112.376426

Showing only first 2 kpts
 Kpt  Band  Eigenvalues  Occupancy
  0   131     -1.03770    1.29758
  0   132     -1.02921    1.25843
  0   133     -0.95671    0.90226
  0   134     -0.91484    0.70189

  1   131     -1.11470    1.59918
  1   132     -1.08369    1.49059
  1   133     -1.01379    1.18516
  1   134     -0.95336    0.88566


Fermi level: -0.97632

No gap
No difference between direct/indirect transitions

Forces in eV/Ang:
  0 Pt   -0.00863   -0.00498   -0.37594
  1 Pt   -0.02039    0.10609   -0.45010
  2 Pt    0.08168   -0.07071   -0.45010
  3 Pt   -0.11025   -0.06365   -0.45478
  4 Pt   -0.00424   -0.00245   -0.08575
  5 Pt   -0.01902   -0.00231   -0.08443
  6 Pt   -0.01151   -0.01532   -0.08443
  7 Pt   -0.01236   -0.00714    0.00342
  8 Pt    0.01106    0.05694    0.27574
  9 Pt    0.01006    0.00581    0.23104
 10 Pt   -0.03642   -0.02103    0.27773
 11 Pt    0.05485   -0.01889    0.27574
 12 Pt    0.02131    0.01230   -0.05056
 13 Pt    0.01145   -0.00334    0.00202
 14 Pt    0.00284    0.01158    0.00202
 15 Pt    0.02522    0.01456    0.00993
 16 C     0.00600    0.00346   -0.34714
 17 O    -0.00217   -0.00125    1.20610

System changes: positions 

Initializing position-dependent things.

Density initialized from wave functions
                                
                                
                                
                                
                                
                                
       O                        
                                
       C    Pt     Pt           
                                
       Pt    PPt    Pt          
                                
        Pt     Pt               
                                
                Pt    Pt        
           Pt     Pt            
                                
            Pt     Pt           
       Pt     Pt                
                                
                                
                                
                                

Atomic positions and initial magnetic moments

Positions:
   0 Pt     0.000000    0.000000   13.500000    ( 0.0000,  0.0000,  0.0000)
   1 Pt     2.771859    0.000000   13.500000    ( 0.0000,  0.0000,  0.0000)
   2 Pt     1.385929    2.400500   13.500000    ( 0.0000,  0.0000,  0.0000)
   3 Pt     4.157788    2.400500   13.500000    ( 0.0000,  0.0000,  0.0000)
   4 Pt     1.381157    0.797411   15.787257    ( 0.0000,  0.0000,  0.0000)
   5 Pt     4.151487    0.797505   15.787421    ( 0.0000,  0.0000,  0.0000)
   6 Pt     2.766403    3.196541   15.787421    ( 0.0000,  0.0000,  0.0000)
   7 Pt     5.537454    3.197051   15.744737    ( 0.0000,  0.0000,  0.0000)
   8 Pt     0.004950    1.592224   18.021775    ( 0.0000,  0.0000,  0.0000)
   9 Pt     2.776104    1.602784   18.032277    ( 0.0000,  0.0000,  0.0000)
  10 Pt     1.401090    4.009586   18.020134    ( 0.0000,  0.0000,  0.0000)
  11 Pt     4.153240    4.009175   18.021776    ( 0.0000,  0.0000,  0.0000)
  12 Pt     0.002843    0.001641   20.422125    ( 0.0000,  0.0000,  0.0000)
  13 Pt     2.776546   -0.001753   20.326657    ( 0.0000,  0.0000,  0.0000)
  14 Pt     1.386755    2.405435   20.326657    ( 0.0000,  0.0000,  0.0000)
  15 Pt     4.163288    2.403675   20.328673    ( 0.0000,  0.0000,  0.0000)
  16 C      0.001806    0.001043   22.250325    ( 0.0000,  0.0000,  0.0000)
  17 O     -0.000599   -0.000346   23.401452    ( 0.0000,  0.0000,  0.0000)

Unit cell:
           periodic     x           y           z      points  spacing
  1. axis:    yes    5.543717    0.000000    0.000000    27     0.1778
  2. axis:    yes    2.771859    4.801000    0.000000    27     0.1778
  3. axis:    yes    0.000000    0.000000   36.789639   175     0.2102

  Lengths:   5.543717   5.543717  36.789639
  Angles:   90.000000  90.000000  60.000000

Effective grid spacing dv^(1/3) = 0.1973

     iter     time        total  log10-change:
                         energy   eigst   dens
iter:   1 23:17:55  -112.913241   -2.00
iter:   2 23:19:03  -116.836542   -2.06  -2.15
iter:   3 23:20:12  -112.558821   -2.42  -1.72
iter:   4 23:21:20  -112.433230   -3.47  -2.42
iter:   5 23:22:27  -112.440079c  -3.90  -2.80
iter:   6 23:23:35  -112.422044c  -4.01  -2.71
iter:   7 23:24:43  -112.417023c  -4.42  -3.03
iter:   8 23:25:52  -112.416809c  -5.12  -3.28
iter:   9 23:26:59  -112.417620c  -5.00  -3.32
iter:  10 23:28:07  -112.416364c  -5.14  -3.29
iter:  11 23:29:15  -112.415280c  -5.50  -3.38
iter:  12 23:30:22  -112.415339c  -5.65  -3.80
iter:  13 23:31:31  -112.415260c  -6.10  -3.69
iter:  14 23:32:39  -112.415123c  -6.69  -3.88
iter:  15 23:33:46  -112.415122c  -6.50  -4.13c
iter:  16 23:34:54  -112.415148c  -6.97  -4.19c
iter:  17 23:36:02  -112.415132c  -7.27  -4.29c
iter:  18 23:37:11  -112.415154c  -7.53c -4.40c

Converged after 18 iterations.

Dipole moment: (0.136240, 0.078661, 0.054376) |e|*Ang

Energy contributions relative to reference atoms: (reference = -8009074.284696)

Kinetic:       -107.943647
Potential:      +73.384012
External:        +0.000000
XC:             -68.952711
Entropy (-ST):   -0.891370
Local:           -8.457122
SIC:             +0.000000
--------------------------
Free energy:   -112.860839
Extrapolated:  -112.415154

Showing only first 2 kpts
 Kpt  Band  Eigenvalues  Occupancy
  0   131     -1.03482    1.30083
  0   132     -1.02859    1.27221
  0   133     -0.95190    0.89620
  0   134     -0.91459    0.71719

  1   131     -1.11050    1.59722
  1   132     -1.07921    1.48718
  1   133     -1.01058    1.18697
  1   134     -0.95134    0.89340


Fermi level: -0.97274

No gap
No difference between direct/indirect transitions

Forces in eV/Ang:
  0 Pt   -0.01174   -0.00678   -0.32740
  1 Pt   -0.02242    0.13184   -0.43160
  2 Pt    0.10297   -0.08534   -0.43160
  3 Pt   -0.13953   -0.08056   -0.44121
  4 Pt    0.00013    0.00008   -0.14739
  5 Pt   -0.00233   -0.00045   -0.14501
  6 Pt   -0.00156   -0.00179   -0.14501
  7 Pt    0.00092    0.00053    0.15429
  8 Pt    0.00056    0.11601    0.38850
  9 Pt    0.00567    0.00327    0.29488
 10 Pt   -0.10455   -0.06036    0.39854
 11 Pt    0.10075   -0.05752    0.38850
 12 Pt    0.02815    0.01625   -0.02710
 13 Pt    0.00734    0.01487   -0.06198
 14 Pt    0.01655   -0.00109   -0.06198
 15 Pt    0.01555    0.00898   -0.05640
 16 C     0.00437    0.00252   -0.38645
 17 O    -0.00193   -0.00111    0.88221

System changes: positions 

Initializing position-dependent things.

Density initialized from wave functions
                                
                                
                                
                                
                                
                                
       O                        
                                
       C    Pt     Pt           
                                
       Pt    PPt    Pt          
                                
        Pt     Pt               
                                
                Pt    Pt        
           Pt     Pt            
                                
            Pt     Pt           
       Pt     Pt                
                                
                                
                                
                                

Atomic positions and initial magnetic moments

Positions:
   0 Pt     0.000000    0.000000   13.500000    ( 0.0000,  0.0000,  0.0000)
   1 Pt     2.771859    0.000000   13.500000    ( 0.0000,  0.0000,  0.0000)
   2 Pt     1.385929    2.400500   13.500000    ( 0.0000,  0.0000,  0.0000)
   3 Pt     4.157788    2.400500   13.500000    ( 0.0000,  0.0000,  0.0000)
   4 Pt     1.378506    0.795881   15.794129    ( 0.0000,  0.0000,  0.0000)
   5 Pt     4.147556    0.796010   15.794480    ( 0.0000,  0.0000,  0.0000)
   6 Pt     2.763143    3.193885   15.794480    ( 0.0000,  0.0000,  0.0000)
   7 Pt     5.533804    3.194944   15.738677    ( 0.0000,  0.0000,  0.0000)
   8 Pt     0.007906    1.592134   18.036672    ( 0.0000,  0.0000,  0.0000)
   9 Pt     2.778778    1.604328   18.049012    ( 0.0000,  0.0000,  0.0000)
  10 Pt     1.405762    4.012284   18.034468    ( 0.0000,  0.0000,  0.0000)
  11 Pt     4.154640    4.011779   18.036673    ( 0.0000,  0.0000,  0.0000)
  12 Pt     0.005646    0.003259   20.486372    ( 0.0000,  0.0000,  0.0000)
  13 Pt     2.779550   -0.002436   20.344855    ( 0.0000,  0.0000,  0.0000)
  14 Pt     1.387666    2.408378   20.344855    ( 0.0000,  0.0000,  0.0000)
  15 Pt     4.167330    2.406008   20.348301    ( 0.0000,  0.0000,  0.0000)
  16 C      0.003035    0.001753   22.327482    ( 0.0000,  0.0000,  0.0000)
  17 O     -0.001021   -0.000589   23.483639    ( 0.0000,  0.0000,  0.0000)

Unit cell:
           periodic     x           y           z      points  spacing
  1. axis:    yes    5.543717    0.000000    0.000000    27     0.1778
  2. axis:    yes    2.771859    4.801000    0.000000    27     0.1778
  3. axis:    yes    0.000000    0.000000   36.789639   175     0.2102

  Lengths:   5.543717   5.543717  36.789639
  Angles:   90.000000  90.000000  60.000000

Effective grid spacing dv^(1/3) = 0.1973

     iter     time        total  log10-change:
                         energy   eigst   dens
iter:   1 23:38:37  -115.523035   -1.69
iter:   2 23:39:45  -142.223079   -1.13  -1.76
iter:   3 23:40:53  -115.003597   -1.84  -1.27
iter:   4 23:42:00  -112.714731   -2.23  -1.90
iter:   5 23:43:09  -112.543697   -3.51  -2.32
iter:   6 23:44:17  -112.524036   -4.07  -2.62
iter:   7 23:45:25  -112.522233c  -3.76  -2.67
iter:   8 23:46:33  -112.479023c  -3.47  -2.71
iter:   9 23:47:40  -112.476885c  -4.65  -3.07
iter:  10 23:48:49  -112.475978c  -5.23  -3.15
iter:  11 23:49:57  -112.475363c  -4.86  -3.20
iter:  12 23:51:13  -112.476177c  -5.11  -3.28
iter:  13 23:52:34  -112.473312c  -5.37  -3.19
iter:  14 23:53:43  -112.473252c  -5.82  -3.65
iter:  15 23:54:52  -112.472952c  -5.95  -3.71
iter:  16 23:55:59  -112.472997c  -6.28  -3.85
iter:  17 23:57:08  -112.473030c  -6.35  -3.96
iter:  18 23:58:22  -112.473120c  -6.62  -4.13c
iter:  19 23:59:43  -112.473163c  -6.70  -4.01c
iter:  20 00:00:56  -112.473110c  -7.25  -4.15c
iter:  21 00:02:03  -112.473125c  -7.57c -4.33c

Converged after 21 iterations.

Dipole moment: (0.096437, 0.055682, 0.058448) |e|*Ang

Energy contributions relative to reference atoms: (reference = -8009074.284696)

Kinetic:       -115.439971
Potential:      +79.643261
External:        +0.000000
XC:             -67.793189
Entropy (-ST):   -0.890828
Local:           -8.437812
SIC:             +0.000000
--------------------------
Free energy:   -112.918539
Extrapolated:  -112.473125

Showing only first 2 kpts
 Kpt  Band  Eigenvalues  Occupancy
  0   131     -1.03543    1.30804
  0   132     -1.03306    1.29731
  0   133     -0.94853    0.88442
  0   134     -0.91807    0.73786

  1   131     -1.10862    1.59433
  1   132     -1.07748    1.48436
  1   133     -1.00970    1.18750
  1   134     -0.95270    0.90502


Fermi level: -0.97175

No gap
No difference between direct/indirect transitions

Forces in eV/Ang:
  0 Pt   -0.01570   -0.00906   -0.28759
  1 Pt   -0.02504    0.15117   -0.41374
  2 Pt    0.11840   -0.09727   -0.41375
  3 Pt   -0.16443   -0.09493   -0.42993
  4 Pt    0.00077    0.00044   -0.12498
  5 Pt    0.02250   -0.00125   -0.12212
  6 Pt    0.01017    0.02011   -0.12212
  7 Pt    0.01717    0.00992    0.33216
  8 Pt   -0.01127    0.12634    0.41305
  9 Pt   -0.00021   -0.00012    0.26458
 10 Pt   -0.13132   -0.07582    0.43090
 11 Pt    0.10378   -0.07293    0.41305
 12 Pt    0.03032    0.01751    0.10311
 13 Pt    0.00489    0.03991   -0.10069
 14 Pt    0.03701   -0.01572   -0.10069
 15 Pt   -0.00189   -0.00109   -0.10002
 16 C     0.00311    0.00179   -0.29848
 17 O     0.00007    0.00004    0.61455

System changes: positions 

Initializing position-dependent things.

Density initialized from wave functions
                                
                                
                                
                                
                                
                                
       O                        
                                
       C                        
            Pt     Pt           
       Pt    PPt    Pt          
                                
        Pt     Pt               
                                
                Pt    Pt        
           Pt     Pt            
                                
            Pt     Pt           
       Pt     Pt                
                                
                                
                                
                                

Atomic positions and initial magnetic moments

Positions:
   0 Pt     0.000000    0.000000   13.500000    ( 0.0000,  0.0000,  0.0000)
   1 Pt     2.771859    0.000000   13.500000    ( 0.0000,  0.0000,  0.0000)
   2 Pt     1.385929    2.400500   13.500000    ( 0.0000,  0.0000,  0.0000)
   3 Pt     4.157788    2.400500   13.500000    ( 0.0000,  0.0000,  0.0000)
   4 Pt     1.372020    0.792137   15.810835    ( 0.0000,  0.0000,  0.0000)
   5 Pt     4.138776    0.792307   15.811675    ( 0.0000,  0.0000,  0.0000)
   6 Pt     2.755546    3.188133   15.811675    ( 0.0000,  0.0000,  0.0000)
   7 Pt     5.525431    3.190110   15.731193    ( 0.0000,  0.0000,  0.0000)
   8 Pt     0.014746    1.593019   18.076826    ( 0.0000,  0.0000,  0.0000)
   9 Pt     2.785171    1.608019   18.091032    ( 0.0000,  0.0000,  0.0000)
  10 Pt     1.415613    4.017971   18.073588    ( 0.0000,  0.0000,  0.0000)
  11 Pt     4.158827    4.017260   18.076826    ( 0.0000,  0.0000,  0.0000)
  12 Pt     0.012799    0.007388   20.648419    ( 0.0000,  0.0000,  0.0000)
  13 Pt     2.786894   -0.003116   20.387719    ( 0.0000,  0.0000,  0.0000)
  14 Pt     1.390749    2.415077   20.387719    ( 0.0000,  0.0000,  0.0000)
  15 Pt     4.176739    2.411440   20.394538    ( 0.0000,  0.0000,  0.0000)
  16 C      0.006041    0.003489   22.516473    ( 0.0000,  0.0000,  0.0000)
  17 O     -0.001996   -0.001152   23.683636    ( 0.0000,  0.0000,  0.0000)

Unit cell:
           periodic     x           y           z      points  spacing
  1. axis:    yes    5.543717    0.000000    0.000000    27     0.1778
  2. axis:    yes    2.771859    4.801000    0.000000    27     0.1778
  3. axis:    yes    0.000000    0.000000   36.789639   175     0.2102

  Lengths:   5.543717   5.543717  36.789639
  Angles:   90.000000  90.000000  60.000000

Effective grid spacing dv^(1/3) = 0.1973

     iter     time        total  log10-change:
                         energy   eigst   dens
iter:   1 00:03:30  -164.578036   -0.82
iter:   2 00:04:37  -340.528131   +0.69  -1.16
iter:   3 00:05:46  -119.916126   -0.23  -0.79
iter:   4 00:06:53  -115.221837   -1.50  -1.67
iter:   5 00:08:01  -114.399244   -2.73  -1.88
iter:   6 00:09:09  -114.322227   -2.90  -1.97
iter:   7 00:10:16  -113.815455   -2.19  -1.96
iter:   8 00:11:25  -112.596824   -2.26  -2.03
iter:   9 00:12:32  -112.578158   -3.59  -2.40
iter:  10 00:13:41  -112.561159c  -4.05  -2.47
iter:  11 00:14:48  -112.515978c  -3.49  -2.50
iter:  12 00:15:56  -112.525007c  -3.76  -2.77
iter:  13 00:17:04  -112.499980c  -4.24  -2.66
iter:  14 00:18:12  -112.500360c  -4.60  -2.97
iter:  15 00:19:20  -112.499586c  -4.50  -2.96
iter:  16 00:20:28  -112.496446c  -4.93  -3.09
iter:  17 00:21:36  -112.496436c  -5.04  -3.28
iter:  18 00:22:43  -112.496914c  -5.44  -3.36
iter:  19 00:23:52  -112.496300c  -5.18  -3.29
iter:  20 00:24:59  -112.496175c  -5.97  -3.55
iter:  21 00:26:06  -112.496291c  -6.02  -3.69
iter:  22 00:27:14  -112.496007c  -5.64  -3.57
iter:  23 00:28:22  -112.495862c  -6.37  -3.88
iter:  24 00:29:30  -112.495944c  -6.71  -3.92
iter:  25 00:30:40  -112.495982c  -6.50  -3.98
iter:  26 00:31:49  -112.495915c  -6.93  -3.92
iter:  27 00:32:59  -112.495951c  -7.20  -4.23c
iter:  28 00:34:08  -112.495936c  -6.82  -4.21c
iter:  29 00:35:18  -112.495972c  -7.66c -4.51c

Converged after 29 iterations.

Dipole moment: (-0.092321, -0.053293, 0.057707) |e|*Ang

Energy contributions relative to reference atoms: (reference = -8009074.284696)

Kinetic:       -132.542212
Potential:      +94.031134
External:        +0.000000
XC:             -65.145353
Entropy (-ST):   -0.888935
Local:           -8.395074
SIC:             +0.000000
--------------------------
Free energy:   -112.940440
Extrapolated:  -112.495972

Showing only first 2 kpts
 Kpt  Band  Eigenvalues  Occupancy
  0   131     -1.05240    1.36018
  0   132     -1.04582    1.33120
  0   133     -0.94697    0.85107
  0   134     -0.93198    0.77870

  1   131     -1.11120    1.58570
  1   132     -1.07774    1.46511
  1   133     -1.01510    1.18830
  1   134     -0.96007    0.91564


Fermi level: -0.97698

No gap
No difference between direct/indirect transitions

Forces in eV/Ang:
  0 Pt   -0.02334   -0.01348   -0.17581
  1 Pt   -0.03020    0.18265   -0.35228
  2 Pt    0.14308   -0.11748   -0.35228
  3 Pt   -0.20894   -0.12063   -0.38500
  4 Pt   -0.00154   -0.00089   -0.04766
  5 Pt    0.06978   -0.00508   -0.04580
  6 Pt    0.03049    0.06297   -0.04579
  7 Pt    0.04784    0.02762    0.64655
  8 Pt   -0.03188    0.12751    0.38699
  9 Pt   -0.00883   -0.00509    0.14261
 10 Pt   -0.16064   -0.09275    0.41776
 11 Pt    0.09449   -0.09136    0.38699
 12 Pt    0.03010    0.01738    0.41528
 13 Pt    0.00087    0.08789   -0.09522
 14 Pt    0.07656   -0.04320   -0.09522
 15 Pt   -0.03568   -0.02060   -0.10994
 16 C    -0.00181   -0.00105    0.03329
 17 O     0.00829    0.00479   -0.55353

System changes: positions 

Initializing position-dependent things.

Density initialized from wave functions
                                
                                
                                
                                
                                
                                
       O                        
                                
       C                        
            Pt     Pt           
       Pt    PPt    Pt          
                                
        Pt     Pt               
                                
                Pt    Pt        
           Pt     Pt            
                                
            Pt     Pt           
       Pt     Pt                
                                
                                
                                
                                

Atomic positions and initial magnetic moments

Positions:
   0 Pt     0.000000    0.000000   13.500000    ( 0.0000,  0.0000,  0.0000)
   1 Pt     2.771859    0.000000   13.500000    ( 0.0000,  0.0000,  0.0000)
   2 Pt     1.385929    2.400500   13.500000    ( 0.0000,  0.0000,  0.0000)
   3 Pt     4.157788    2.400500   13.500000    ( 0.0000,  0.0000,  0.0000)
   4 Pt     1.372160    0.792217   15.809289    ( 0.0000,  0.0000,  0.0000)
   5 Pt     4.139787    0.792334   15.810143    ( 0.0000,  0.0000,  0.0000)
   6 Pt     2.756075    3.188995   15.810143    ( 0.0000,  0.0000,  0.0000)
   7 Pt     5.526196    3.190551   15.739460    ( 0.0000,  0.0000,  0.0000)
   8 Pt     0.014218    1.594880   18.082065    ( 0.0000,  0.0000,  0.0000)
   9 Pt     2.784939    1.607885   18.092903    ( 0.0000,  0.0000,  0.0000)
  10 Pt     1.413152    4.016550   18.079252    ( 0.0000,  0.0000,  0.0000)
  11 Pt     4.160174    4.015872   18.082066    ( 0.0000,  0.0000,  0.0000)
  12 Pt     0.013090    0.007556   20.648599    ( 0.0000,  0.0000,  0.0000)
  13 Pt     2.786762   -0.002019   20.385375    ( 0.0000,  0.0000,  0.0000)
  14 Pt     1.391633    2.414414   20.385375    ( 0.0000,  0.0000,  0.0000)
  15 Pt     4.176171    2.411112   20.391956    ( 0.0000,  0.0000,  0.0000)
  16 C      0.005963    0.003444   22.510805    ( 0.0000,  0.0000,  0.0000)
  17 O     -0.001874   -0.001082   23.676513    ( 0.0000,  0.0000,  0.0000)

Unit cell:
           periodic     x           y           z      points  spacing
  1. axis:    yes    5.543717    0.000000    0.000000    27     0.1778
  2. axis:    yes    2.771859    4.801000    0.000000    27     0.1778
  3. axis:    yes    0.000000    0.000000   36.789639   175     0.2102

  Lengths:   5.543717   5.543717  36.789639
  Angles:   90.000000  90.000000  60.000000

Effective grid spacing dv^(1/3) = 0.1973

     iter     time        total  log10-change:
                         energy   eigst   dens
iter:   1 00:36:48  -113.075795   -3.10
iter:   2 00:37:56  -121.343986   -1.88  -2.11
iter:   3 00:39:04  -112.772578   -2.35  -1.57
iter:   4 00:40:11  -112.521635   -3.24  -2.39
iter:   5 00:41:19  -112.516590   -4.35  -3.15
iter:   6 00:42:27  -112.514442c  -4.89  -3.33
iter:   7 00:43:35  -112.513659c  -5.41  -3.52
iter:   8 00:44:43  -112.513226c  -5.65  -3.65
iter:   9 00:45:51  -112.513369c  -6.16  -3.82
iter:  10 00:46:59  -112.513204c  -6.23  -3.83
iter:  11 00:48:07  -112.513099c  -6.38  -4.02c
iter:  12 00:49:14  -112.513055c  -6.88  -4.19c
iter:  13 00:50:22  -112.513027c  -6.93  -4.26c
iter:  14 00:51:30  -112.512986c  -6.99  -4.17c
iter:  15 00:52:37  -112.512948c  -7.36  -4.47c
iter:  16 00:53:46  -112.512977c  -7.65c -4.69c

Converged after 16 iterations.

Dipole moment: (-0.200551, -0.115778, 0.058673) |e|*Ang

Energy contributions relative to reference atoms: (reference = -8009074.284696)

Kinetic:       -132.216330
Potential:      +93.788940
External:        +0.000000
XC:             -65.244164
Entropy (-ST):   -0.887872
Local:           -8.397488
SIC:             +0.000000
--------------------------
Free energy:   -112.956913
Extrapolated:  -112.512977

Showing only first 2 kpts
 Kpt  Band  Eigenvalues  Occupancy
  0   131     -1.05475    1.37117
  0   132     -1.04603    1.33295
  0   133     -0.94572    0.84585
  0   134     -0.93132    0.77643

  1   131     -1.11074    1.58480
  1   132     -1.07805    1.46702
  1   133     -1.01499    1.18869
  1   134     -0.95952    0.91382


Fermi level: -0.97680

No gap
No difference between direct/indirect transitions

Forces in eV/Ang:
  0 Pt   -0.02307   -0.01332   -0.18341
  1 Pt   -0.03018    0.16437   -0.33691
  2 Pt    0.12725   -0.10832   -0.33691
  3 Pt   -0.18976   -0.10955   -0.36536
  4 Pt    0.00137    0.00079    0.00176
  5 Pt    0.06045   -0.00314    0.00223
  6 Pt    0.02751    0.05392    0.00223
  7 Pt    0.04281    0.02472    0.56166
  8 Pt   -0.02664    0.05559    0.33340
  9 Pt   -0.01064   -0.00614    0.08729
 10 Pt   -0.09311   -0.05376    0.35670
 11 Pt    0.03483   -0.05086    0.33339
 12 Pt    0.02658    0.01535    0.31758
 13 Pt    0.00426    0.07501   -0.05991
 14 Pt    0.06710   -0.03382   -0.05991
 15 Pt   -0.02747   -0.01586   -0.07340
 16 C    -0.00001   -0.00002    0.01081
 17 O     0.00640    0.00370   -0.40021

System changes: positions 

Initializing position-dependent things.

Density initialized from wave functions
                                
                                
                                
                                
                                
                                
       O                        
                                
       C                        
            Pt     Pt           
       Pt    PPt    Pt          
                                
        Pt     Pt               
                                
                Pt    Pt        
           Pt     Pt            
                                
            Pt     Pt           
       Pt     Pt                
                                
                                
                                
                                

Atomic positions and initial magnetic moments

Positions:
   0 Pt     0.000000    0.000000   13.500000    ( 0.0000,  0.0000,  0.0000)
   1 Pt     2.771859    0.000000   13.500000    ( 0.0000,  0.0000,  0.0000)
   2 Pt     1.385929    2.400500   13.500000    ( 0.0000,  0.0000,  0.0000)
   3 Pt     4.157788    2.400500   13.500000    ( 0.0000,  0.0000,  0.0000)
   4 Pt     1.370651    0.791346   15.810834    ( 0.0000,  0.0000,  0.0000)
   5 Pt     4.142214    0.791159   15.811863    ( 0.0000,  0.0000,  0.0000)
   6 Pt     2.756270    3.191684   15.811863    ( 0.0000,  0.0000,  0.0000)
   7 Pt     5.527442    3.191270   15.782954    ( 0.0000,  0.0000,  0.0000)
   8 Pt     0.013889    1.601327   18.124573    ( 0.0000,  0.0000,  0.0000)
   9 Pt     2.785824    1.608395   18.115168    ( 0.0000,  0.0000,  0.0000)
  10 Pt     1.406718    4.012835   18.123481    ( 0.0000,  0.0000,  0.0000)
  11 Pt     4.165593    4.012364   18.124574    ( 0.0000,  0.0000,  0.0000)
  12 Pt     0.017347    0.010014   20.709771    ( 0.0000,  0.0000,  0.0000)
  13 Pt     2.789016    0.003817   20.390525    ( 0.0000,  0.0000,  0.0000)
  14 Pt     1.397815    2.413448   20.390525    ( 0.0000,  0.0000,  0.0000)
  15 Pt     4.176664    2.411396   20.396940    ( 0.0000,  0.0000,  0.0000)
  16 C      0.006750    0.003898   22.550432    ( 0.0000,  0.0000,  0.0000)
  17 O     -0.001590   -0.000917   23.712076    ( 0.0000,  0.0000,  0.0000)

Unit cell:
           periodic     x           y           z      points  spacing
  1. axis:    yes    5.543717    0.000000    0.000000    27     0.1778
  2. axis:    yes    2.771859    4.801000    0.000000    27     0.1778
  3. axis:    yes    0.000000    0.000000   36.789639   175     0.2102

  Lengths:   5.543717   5.543717  36.789639
  Angles:   90.000000  90.000000  60.000000

Effective grid spacing dv^(1/3) = 0.1973

     iter     time        total  log10-change:
                         energy   eigst   dens
iter:   1 00:55:12  -130.739425   -1.47
iter:   2 00:56:20  -229.887799   -0.03  -1.41
iter:   3 00:57:28  -118.781282   -1.11  -0.94
iter:   4 00:58:36  -113.333325   -1.80  -1.79
iter:   5 00:59:43  -112.897001   -3.02  -2.11
iter:   6 01:00:51  -112.852553   -3.59  -2.36
iter:   7 01:01:58  -112.794916c  -3.29  -2.31
iter:   8 01:03:06  -112.626485   -2.95  -2.42
iter:   9 01:04:14  -112.569615   -3.67  -2.55
iter:  10 01:05:21  -112.565821c  -4.66  -2.84
iter:  11 01:06:29  -112.561980c  -4.24  -2.89
iter:  12 01:07:37  -112.561427c  -4.67  -3.06
iter:  13 01:08:44  -112.564183c  -4.89  -3.10
iter:  14 01:09:52  -112.556502c  -4.78  -3.01
iter:  15 01:10:59  -112.555947c  -5.42  -3.46
iter:  16 01:12:07  -112.556113c  -5.92  -3.52
iter:  17 01:13:15  -112.556097c  -5.52  -3.57
iter:  18 01:14:22  -112.556130c  -6.09  -3.74
iter:  19 01:15:31  -112.556524c  -6.01  -3.77
iter:  20 01:16:39  -112.555994c  -6.13  -3.61
iter:  21 01:17:46  -112.556018c  -6.85  -4.00c
iter:  22 01:18:54  -112.555948c  -6.73  -4.10c
iter:  23 01:20:01  -112.555986c  -7.21  -4.18c
iter:  24 01:21:10  -112.555984c  -7.16  -4.19c
iter:  25 01:22:18  -112.556006c  -7.66c -4.32c

Converged after 25 iterations.

Dipole moment: (-0.806556, -0.465645, 0.054916) |e|*Ang

Energy contributions relative to reference atoms: (reference = -8009074.284696)

Kinetic:       -134.451791
Potential:      +95.715111
External:        +0.000000
XC:             -64.980251
Entropy (-ST):   -0.880111
Local:           -8.399020
SIC:             +0.000000
--------------------------
Free energy:   -112.996061
Extrapolated:  -112.556006

Showing only first 2 kpts
 Kpt  Band  Eigenvalues  Occupancy
  0   131     -1.08760    1.44829
  0   132     -1.06546    1.35561
  0   133     -0.95380    0.81569
  0   134     -0.94423    0.76988

  1   131     -1.12342    1.57948
  1   132     -1.09215    1.46628
  1   133     -1.02915    1.18804
  1   134     -0.96913    0.89063


Fermi level: -0.99109

No gap
No difference between direct/indirect transitions

Forces in eV/Ang:
  0 Pt   -0.02252   -0.01300   -0.16857
  1 Pt   -0.03062    0.08202   -0.23435
  2 Pt    0.05572   -0.06752   -0.23435
  3 Pt   -0.10588   -0.06113   -0.24724
  4 Pt    0.01349    0.00779    0.21946
  5 Pt    0.03357    0.00718    0.21316
  6 Pt    0.02300    0.02548    0.21316
  7 Pt    0.02815    0.01625    0.26431
  8 Pt   -0.00780   -0.23690    0.04773
  9 Pt   -0.02034   -0.01174   -0.21085
 10 Pt    0.17758    0.10253    0.04004
 11 Pt   -0.20906    0.11169    0.04773
 12 Pt    0.01123    0.00648   -0.15276
 13 Pt    0.01545    0.04091    0.13591
 14 Pt    0.04316   -0.00708    0.13591
 15 Pt   -0.01318   -0.00761    0.11812
 16 C     0.00596    0.00344   -0.07707
 17 O     0.00114    0.00066    0.05128

System changes: positions 

Initializing position-dependent things.

Density initialized from wave functions
                                
                                
                                
                                
                                
                                
       O                        
                                
       C                        
            Pt     Pt           
       Pt    PPt    Pt          
                                
        Pt     Pt               
                                
                Pt    Pt        
           Pt     Pt            
                                
            Pt     Pt           
       Pt     Pt                
                                
                                
                                
                                

Atomic positions and initial magnetic moments

Positions:
   0 Pt     0.000000    0.000000   13.500000    ( 0.0000,  0.0000,  0.0000)
   1 Pt     2.771859    0.000000   13.500000    ( 0.0000,  0.0000,  0.0000)
   2 Pt     1.385929    2.400500   13.500000    ( 0.0000,  0.0000,  0.0000)
   3 Pt     4.157788    2.400500   13.500000    ( 0.0000,  0.0000,  0.0000)
   4 Pt     1.371029    0.791564   15.813151    ( 0.0000,  0.0000,  0.0000)
   5 Pt     4.143392    0.791337   15.814085    ( 0.0000,  0.0000,  0.0000)
   6 Pt     2.757013    3.192615   15.814085    ( 0.0000,  0.0000,  0.0000)
   7 Pt     5.528401    3.191824   15.791464    ( 0.0000,  0.0000,  0.0000)
   8 Pt     0.013386    1.598662   18.127404    ( 0.0000,  0.0000,  0.0000)
   9 Pt     2.785293    1.608089   18.112263    ( 0.0000,  0.0000,  0.0000)
  10 Pt     1.407994    4.013572   18.126432    ( 0.0000,  0.0000,  0.0000)
  11 Pt     4.163034    4.013261   18.127404    ( 0.0000,  0.0000,  0.0000)
  12 Pt     0.017560    0.010137   20.705317    ( 0.0000,  0.0000,  0.0000)
  13 Pt     2.789072    0.005021   20.390704    ( 0.0000,  0.0000,  0.0000)
  14 Pt     1.398886    2.412894   20.390704    ( 0.0000,  0.0000,  0.0000)
  15 Pt     4.176027    2.411029   20.396674    ( 0.0000,  0.0000,  0.0000)
  16 C      0.006754    0.003900   22.543782    ( 0.0000,  0.0000,  0.0000)
  17 O     -0.001495   -0.000862   23.705309    ( 0.0000,  0.0000,  0.0000)

Unit cell:
           periodic     x           y           z      points  spacing
  1. axis:    yes    5.543717    0.000000    0.000000    27     0.1778
  2. axis:    yes    2.771859    4.801000    0.000000    27     0.1778
  3. axis:    yes    0.000000    0.000000   36.789639   175     0.2102

  Lengths:   5.543717   5.543717  36.789639
  Angles:   90.000000  90.000000  60.000000

Effective grid spacing dv^(1/3) = 0.1973

     iter     time        total  log10-change:
                         energy   eigst   dens
iter:   1 01:23:44  -112.606964   -3.50
iter:   2 01:24:52  -113.318513   -3.05  -2.66
iter:   3 01:26:00  -112.564733   -3.38  -2.06
iter:   4 01:27:08  -112.564202   -4.83  -3.39
iter:   5 01:28:16  -112.563125c  -5.14  -3.47
iter:   6 01:29:24  -112.563138c  -5.87  -3.62
iter:   7 01:30:31  -112.563116c  -6.35  -3.76
iter:   8 01:31:39  -112.563083c  -6.19  -3.73
iter:   9 01:32:46  -112.562984c  -6.35  -3.79
iter:  10 01:33:55  -112.562958c  -6.60  -4.04c
iter:  11 01:35:02  -112.562918c  -6.98  -4.20c
iter:  12 01:36:10  -112.562809c  -7.18  -4.33c
iter:  13 01:37:17  -112.562822c  -7.37  -4.40c
iter:  14 01:38:25  -112.562814c  -7.14  -4.52c
iter:  15 01:39:33  -112.562774c  -7.61c -4.36c

Converged after 15 iterations.

Dipole moment: (-0.845355, -0.488043, 0.055474) |e|*Ang

Energy contributions relative to reference atoms: (reference = -8009074.284696)

Kinetic:       -134.315597
Potential:      +95.612316
External:        +0.000000
XC:             -65.023843
Entropy (-ST):   -0.879355
Local:           -8.395972
SIC:             +0.000000
--------------------------
Free energy:   -113.002451
Extrapolated:  -112.562774

Showing only first 2 kpts
 Kpt  Band  Eigenvalues  Occupancy
  0   131     -1.09143    1.45337
  0   132     -1.06804    1.35571
  0   133     -0.95763    0.82181
  0   134     -0.94648    0.76842

  1   131     -1.12574    1.57867
  1   132     -1.09548    1.46928
  1   133     -1.03163    1.18767
  1   134     -0.96960    0.88035


Fermi level: -0.99365

No gap
No difference between direct/indirect transitions

Forces in eV/Ang:
  0 Pt   -0.02150   -0.01241   -0.15694
  1 Pt   -0.02971    0.07077   -0.21128
  2 Pt    0.04644   -0.06111   -0.21128
  3 Pt   -0.09276   -0.05355   -0.22135
  4 Pt    0.01482    0.00856    0.17730
  5 Pt    0.02569    0.00998    0.17199
  6 Pt    0.02149    0.01726    0.17199
  7 Pt    0.02346    0.01354    0.17556
  8 Pt   -0.00607   -0.18701    0.03327
  9 Pt   -0.01877   -0.01084   -0.18203
 10 Pt    0.13892    0.08021    0.02304
 11 Pt   -0.16499    0.08825    0.03327
 12 Pt    0.01080    0.00624   -0.17849
 13 Pt    0.01602    0.03054    0.14271
 14 Pt    0.03447   -0.00140    0.14271
 15 Pt   -0.00697   -0.00402    0.12597
 16 C     0.00619    0.00357   -0.01255
 17 O     0.00063    0.00036    0.08633

System changes: positions 

Initializing position-dependent things.

Density initialized from wave functions
                                
                                
                                
                                
                                
                                
       O                        
                                
       C                        
            Pt     Pt           
       Pt    PPt    Pt          
                                
        Pt     Pt               
                                
                Pt    Pt        
           Pt     Pt            
                                
            Pt     Pt           
       Pt     Pt                
                                
                                
                                
                                

Atomic positions and initial magnetic moments

Positions:
   0 Pt     0.000000    0.000000   13.500000    ( 0.0000,  0.0000,  0.0000)
   1 Pt     2.771859    0.000000   13.500000    ( 0.0000,  0.0000,  0.0000)
   2 Pt     1.385929    2.400500   13.500000    ( 0.0000,  0.0000,  0.0000)
   3 Pt     4.157788    2.400500   13.500000    ( 0.0000,  0.0000,  0.0000)
   4 Pt     1.371151    0.791635   15.827900    ( 0.0000,  0.0000,  0.0000)
   5 Pt     4.145936    0.791362   15.828531    ( 0.0000,  0.0000,  0.0000)
   6 Pt     2.758308    3.194805   15.828531    ( 0.0000,  0.0000,  0.0000)
   7 Pt     5.530248    3.192891   15.821608    ( 0.0000,  0.0000,  0.0000)
   8 Pt     0.013081    1.587203   18.146457    ( 0.0000,  0.0000,  0.0000)
   9 Pt     2.784568    1.607671   18.108370    ( 0.0000,  0.0000,  0.0000)
  10 Pt     1.416364    4.018404   18.145427    ( 0.0000,  0.0000,  0.0000)
  11 Pt     4.152958    4.018726   18.146457    ( 0.0000,  0.0000,  0.0000)
  12 Pt     0.020170    0.011643   20.724787    ( 0.0000,  0.0000,  0.0000)
  13 Pt     2.791298    0.009601   20.404623    ( 0.0000,  0.0000,  0.0000)
  14 Pt     1.403966    2.412531   20.404623    ( 0.0000,  0.0000,  0.0000)
  15 Pt     4.175862    2.410933   20.409446    ( 0.0000,  0.0000,  0.0000)
  16 C      0.007583    0.004378   22.565525    ( 0.0000,  0.0000,  0.0000)
  17 O     -0.001361   -0.000784   23.728124    ( 0.0000,  0.0000,  0.0000)

Unit cell:
           periodic     x           y           z      points  spacing
  1. axis:    yes    5.543717    0.000000    0.000000    27     0.1778
  2. axis:    yes    2.771859    4.801000    0.000000    27     0.1778
  3. axis:    yes    0.000000    0.000000   36.789639   175     0.2102

  Lengths:   5.543717   5.543717  36.789639
  Angles:   90.000000  90.000000  60.000000

Effective grid spacing dv^(1/3) = 0.1973

     iter     time        total  log10-change:
                         energy   eigst   dens
iter:   1 01:40:59  -118.063142   -1.99
iter:   2 01:42:06  -162.748855   -0.91  -1.66
iter:   3 01:43:14  -119.290625   -1.81  -1.15
iter:   4 01:44:22  -112.866109   -1.96  -1.66
iter:   5 01:45:29  -112.656107   -3.15  -2.31
iter:   6 01:46:37  -112.623455   -3.86  -2.60
iter:   7 01:47:45  -112.607653c  -3.96  -2.69
iter:   8 01:48:52  -112.591039c  -4.20  -2.82
iter:   9 01:50:01  -112.582729c  -4.12  -2.99
iter:  10 01:51:09  -112.582281c  -5.03  -3.15
iter:  11 01:52:17  -112.580794c  -5.30  -3.20
iter:  12 01:53:25  -112.580456c  -5.48  -3.35
iter:  13 01:54:33  -112.579749c  -5.29  -3.44
iter:  14 01:55:40  -112.579309c  -6.02  -3.62
iter:  15 01:56:49  -112.579308c  -6.25  -3.80
iter:  16 01:57:56  -112.579190c  -6.28  -3.87
iter:  17 01:59:04  -112.579303c  -6.46  -4.01c
iter:  18 02:00:11  -112.579285c  -6.89  -4.05c
iter:  19 02:01:19  -112.579296c  -7.14  -4.19c
iter:  20 02:02:27  -112.579310c  -7.19  -4.14c
iter:  21 02:03:35  -112.579282c  -7.54c -4.30c

Converged after 21 iterations.

Dipole moment: (-1.022694, -0.590421, 0.055368) |e|*Ang

Energy contributions relative to reference atoms: (reference = -8009074.284696)

Kinetic:       -137.056529
Potential:      +97.899130
External:        +0.000000
XC:             -64.585435
Entropy (-ST):   -0.876315
Local:           -8.398291
SIC:             +0.000000
--------------------------
Free energy:   -113.017440
Extrapolated:  -112.579282

Showing only first 2 kpts
 Kpt  Band  Eigenvalues  Occupancy
  0   131     -1.10597    1.49079
  0   132     -1.07472    1.36347
  0   133     -0.96629    0.84010
  0   134     -0.95142    0.76863

  1   131     -1.12867    1.57210
  1   132     -1.10007    1.46807
  1   133     -1.03629    1.18651
  1   134     -0.96862    0.85146


Fermi level: -0.99855

No gap
No difference between direct/indirect transitions

Forces in eV/Ang:
  0 Pt   -0.01937   -0.01118   -0.05896
  1 Pt   -0.02740    0.04568   -0.09209
  2 Pt    0.02586   -0.04656   -0.09209
  3 Pt   -0.06256   -0.03612   -0.09569
  4 Pt    0.01527    0.00882    0.04340
  5 Pt    0.01155    0.01463    0.04115
  6 Pt    0.01844    0.00269    0.04115
  7 Pt    0.01495    0.00863   -0.00956
  8 Pt   -0.00456    0.03095    0.05970
  9 Pt   -0.01250   -0.00722   -0.00383
 10 Pt   -0.03897   -0.02250    0.04220
 11 Pt    0.02453   -0.01942    0.05970
 12 Pt    0.01021    0.00589   -0.13722
 13 Pt    0.01450    0.00464    0.09507
 14 Pt    0.01127    0.01023    0.09507
 15 Pt    0.00796    0.00460    0.07805
 16 C     0.00541    0.00312    0.03172
 17 O     0.00135    0.00078   -0.09482

System changes: positions 

Initializing position-dependent things.

Density initialized from wave functions
                                
                                
                                
                                
                                
                                
       O                        
                                
       C                        
            Pt     Pt           
       Pt    PPt    Pt          
                                
        Pt     Pt               
                                
                Pt    Pt        
           Pt     Pt            
                                
            Pt     Pt           
       Pt     Pt                
                                
                                
                                
                                

Atomic positions and initial magnetic moments

Positions:
   0 Pt     0.000000    0.000000   13.500000    ( 0.0000,  0.0000,  0.0000)
   1 Pt     2.771859    0.000000   13.500000    ( 0.0000,  0.0000,  0.0000)
   2 Pt     1.385929    2.400500   13.500000    ( 0.0000,  0.0000,  0.0000)
   3 Pt     4.157788    2.400500   13.500000    ( 0.0000,  0.0000,  0.0000)
   4 Pt     1.372109    0.792188   15.830476    ( 0.0000,  0.0000,  0.0000)
   5 Pt     4.147553    0.792008   15.830946    ( 0.0000,  0.0000,  0.0000)
   6 Pt     2.759676    3.195883   15.830946    ( 0.0000,  0.0000,  0.0000)
   7 Pt     5.531748    3.193757   15.829083    ( 0.0000,  0.0000,  0.0000)
   8 Pt     0.012281    1.584765   18.148427    ( 0.0000,  0.0000,  0.0000)
   9 Pt     2.783543    1.607079   18.103396    ( 0.0000,  0.0000,  0.0000)
  10 Pt     1.416865    4.018693   18.147160    ( 0.0000,  0.0000,  0.0000)
  11 Pt     4.150446    4.019253   18.148427    ( 0.0000,  0.0000,  0.0000)
  12 Pt     0.020298    0.011717   20.710201    ( 0.0000,  0.0000,  0.0000)
  13 Pt     2.791391    0.010800   20.405500    ( 0.0000,  0.0000,  0.0000)
  14 Pt     1.405051    2.412013   20.405500    ( 0.0000,  0.0000,  0.0000)
  15 Pt     4.175102    2.410494   20.409437    ( 0.0000,  0.0000,  0.0000)
  16 C      0.007597    0.004386   22.552786    ( 0.0000,  0.0000,  0.0000)
  17 O     -0.001224   -0.000705   23.714663    ( 0.0000,  0.0000,  0.0000)

Unit cell:
           periodic     x           y           z      points  spacing
  1. axis:    yes    5.543717    0.000000    0.000000    27     0.1778
  2. axis:    yes    2.771859    4.801000    0.000000    27     0.1778
  3. axis:    yes    0.000000    0.000000   36.789639   175     0.2102

  Lengths:   5.543717   5.543717  36.789639
  Angles:   90.000000  90.000000  60.000000

Effective grid spacing dv^(1/3) = 0.1973

     iter     time        total  log10-change:
                         energy   eigst   dens
iter:   1 02:05:02  -112.789423   -3.09
iter:   2 02:06:09  -116.065424   -2.35  -2.32
iter:   3 02:07:18  -112.601886   -2.75  -1.75
iter:   4 02:08:26  -112.584564   -3.89  -2.88
iter:   5 02:09:33  -112.583555c  -5.15  -3.27
iter:   6 02:10:41  -112.581669c  -4.92  -3.34
iter:   7 02:11:48  -112.581807c  -5.71  -3.59
iter:   8 02:12:55  -112.581566c  -6.06  -3.58
iter:   9 02:14:03  -112.581642c  -6.25  -3.79
iter:  10 02:15:11  -112.581424c  -5.96  -3.82
iter:  11 02:16:18  -112.581263c  -6.55  -4.12c
iter:  12 02:17:26  -112.581282c  -6.99  -4.18c
iter:  13 02:18:34  -112.581231c  -7.06  -4.21c
iter:  14 02:19:42  -112.581271c  -6.78  -4.33c
iter:  15 02:20:50  -112.581259c  -7.60c -4.62c

Converged after 15 iterations.

Dipole moment: (-1.061767, -0.612977, 0.057765) |e|*Ang

Energy contributions relative to reference atoms: (reference = -8009074.284696)

Kinetic:       -136.921587
Potential:      +97.834287
External:        +0.000000
XC:             -64.664494
Entropy (-ST):   -0.876752
Local:           -8.391089
SIC:             +0.000000
--------------------------
Free energy:   -113.019635
Extrapolated:  -112.581259

Showing only first 2 kpts
 Kpt  Band  Eigenvalues  Occupancy
  0   131     -1.10383    1.49269
  0   132     -1.07193    1.36283
  0   133     -0.96564    0.84984
  0   134     -0.94885    0.76896

  1   131     -1.12582    1.57137
  1   132     -1.09825    1.47127
  1   133     -1.03321    1.18438
  1   134     -0.96456    0.84453


Fermi level: -0.99591

No gap
No difference between direct/indirect transitions

Forces in eV/Ang:
  0 Pt   -0.01785   -0.01030   -0.03908
  1 Pt   -0.02640    0.03819   -0.06668
  2 Pt    0.01987   -0.04195   -0.06668
  3 Pt   -0.05268   -0.03042   -0.06809
  4 Pt    0.00854    0.00493    0.00235
  5 Pt    0.01150    0.01149    0.00186
  6 Pt    0.01570    0.00421    0.00187
  7 Pt    0.01105    0.00638   -0.06443
  8 Pt   -0.00372    0.07980    0.05476
  9 Pt   -0.00827   -0.00478    0.05545
 10 Pt   -0.07536   -0.04351    0.03718
 11 Pt    0.06725   -0.04312    0.05475
 12 Pt    0.01043    0.00602   -0.05854
 13 Pt    0.01424   -0.00133    0.09498
 14 Pt    0.00597    0.01300    0.09498
 15 Pt    0.01145    0.00661    0.08119
 16 C     0.00679    0.00392   -0.04089
 17 O     0.00109    0.00063    0.00464

System changes: positions 

Initializing position-dependent things.

Density initialized from wave functions
                                
                                
                                
                                
                                
                                
       O                        
                                
       C                        
            Pt     Pt           
       Pt    PPt    Pt          
                                
        Pt     Pt               
                                
                Pt    Pt        
           Pt     Pt            
                                
            Pt     Pt           
       Pt     Pt                
                                
                                
                                
                                

Atomic positions and initial magnetic moments

Positions:
   0 Pt     0.000000    0.000000   13.500000    ( 0.0000,  0.0000,  0.0000)
   1 Pt     2.771859    0.000000   13.500000    ( 0.0000,  0.0000,  0.0000)
   2 Pt     1.385929    2.400500   13.500000    ( 0.0000,  0.0000,  0.0000)
   3 Pt     4.157788    2.400500   13.500000    ( 0.0000,  0.0000,  0.0000)
   4 Pt     1.372509    0.792419   15.832291    ( 0.0000,  0.0000,  0.0000)
   5 Pt     4.148498    0.792373   15.832689    ( 0.0000,  0.0000,  0.0000)
   6 Pt     2.760463    3.196518   15.832689    ( 0.0000,  0.0000,  0.0000)
   7 Pt     5.532566    3.194229   15.833767    ( 0.0000,  0.0000,  0.0000)
   8 Pt     0.011945    1.585023   18.153049    ( 0.0000,  0.0000,  0.0000)
   9 Pt     2.783071    1.606806   18.103638    ( 0.0000,  0.0000,  0.0000)
  10 Pt     1.415911    4.018143   18.151446    ( 0.0000,  0.0000,  0.0000)
  11 Pt     4.150502    4.018833   18.153050    ( 0.0000,  0.0000,  0.0000)
  12 Pt     0.020868    0.012047   20.708111    ( 0.0000,  0.0000,  0.0000)
  13 Pt     2.791917    0.011651   20.408567    ( 0.0000,  0.0000,  0.0000)
  14 Pt     1.406050    2.412043   20.408567    ( 0.0000,  0.0000,  0.0000)
  15 Pt     4.175105    2.410496   20.411903    ( 0.0000,  0.0000,  0.0000)
  16 C      0.007812    0.004510   22.551677    ( 0.0000,  0.0000,  0.0000)
  17 O     -0.001144   -0.000659   23.713469    ( 0.0000,  0.0000,  0.0000)

Unit cell:
           periodic     x           y           z      points  spacing
  1. axis:    yes    5.543717    0.000000    0.000000    27     0.1778
  2. axis:    yes    2.771859    4.801000    0.000000    27     0.1778
  3. axis:    yes    0.000000    0.000000   36.789639   175     0.2102

  Lengths:   5.543717   5.543717  36.789639
  Angles:   90.000000  90.000000  60.000000

Effective grid spacing dv^(1/3) = 0.1973

     iter     time        total  log10-change:
                         energy   eigst   dens
iter:   1 02:22:16  -112.990949   -3.34
iter:   2 02:23:23  -119.534843   -2.02  -2.17
iter:   3 02:24:31  -112.739847   -2.47  -1.61
iter:   4 02:25:39  -112.588744   -3.43  -2.49
iter:   5 02:26:47  -112.584773   -4.53  -3.32
iter:   6 02:27:54  -112.583782c  -5.31  -3.54
iter:   7 02:29:02  -112.583246c  -5.66  -3.70
iter:   8 02:30:10  -112.582854c  -5.89  -3.76
iter:   9 02:31:17  -112.582941c  -6.44  -3.98
iter:  10 02:32:25  -112.582777c  -6.44  -3.96
iter:  11 02:33:32  -112.582635c  -6.54  -4.23c
iter:  12 02:34:40  -112.582624c  -7.13  -4.47c
iter:  13 02:35:48  -112.582613c  -7.28  -4.50c
iter:  14 02:36:56  -112.582610c  -7.53c -4.58c

Converged after 14 iterations.

Dipole moment: (-1.138270, -0.657144, 0.058374) |e|*Ang

Energy contributions relative to reference atoms: (reference = -8009074.284696)

Kinetic:       -137.245029
Potential:      +98.108365
External:        +0.000000
XC:             -64.614951
Entropy (-ST):   -0.876711
Local:           -8.392639
SIC:             +0.000000
--------------------------
Free energy:   -113.020965
Extrapolated:  -112.582610

Showing only first 2 kpts
 Kpt  Band  Eigenvalues  Occupancy
  0   131     -1.10537    1.49726
  0   132     -1.07283    1.36529
  0   133     -0.96695    0.85459
  0   134     -0.94976    0.77174

  1   131     -1.12605    1.57105
[...]
 12 Pt    0.01190    0.00687    0.06961
 13 Pt    0.00236    0.00426    0.02111
 14 Pt    0.00488   -0.00009    0.02111
 15 Pt    0.00385    0.00222    0.03398
 16 C     0.00200    0.00115   -0.01455
 17 O     0.00291    0.00168   -0.07897

System changes: positions 

Initializing position-dependent things.

Density initialized from wave functions
                                
                                
                                
                                
                                
                                
       O                        
                                
       C                        
            Pt     Pt           
       Pt    PPt    Pt          
                                
        Pt     Pt               
                                
                Pt    Pt        
           Pt     Pt            
                                
            Pt     Pt           
       Pt     Pt                
                                
                                
                                
                                

Atomic positions and initial magnetic moments

Positions:
   0 Pt     0.000000    0.000000   13.500000    ( 0.0000,  0.0000,  0.0000)
   1 Pt     2.771859    0.000000   13.500000    ( 0.0000,  0.0000,  0.0000)
   2 Pt     1.385929    2.400500   13.500000    ( 0.0000,  0.0000,  0.0000)
   3 Pt     4.157788    2.400500   13.500000    ( 0.0000,  0.0000,  0.0000)
   4 Pt     1.375102    0.793916   15.843702    ( 0.0000,  0.0000,  0.0000)
   5 Pt     4.152806    0.795155   15.843391    ( 0.0000,  0.0000,  0.0000)
   6 Pt     2.765027    3.198859   15.843391    ( 0.0000,  0.0000,  0.0000)
   7 Pt     5.536736    3.196636   15.827682    ( 0.0000,  0.0000,  0.0000)
   8 Pt     0.011192    1.591956   18.173419    ( 0.0000,  0.0000,  0.0000)
   9 Pt     2.781429    1.605858   18.123969    ( 0.0000,  0.0000,  0.0000)
  10 Pt     1.408187    4.013683   18.166891    ( 0.0000,  0.0000,  0.0000)
  11 Pt     4.156130    4.014714   18.173419    ( 0.0000,  0.0000,  0.0000)
  12 Pt     0.026141    0.015090   20.706462    ( 0.0000,  0.0000,  0.0000)
  13 Pt     2.797390    0.014736   20.446880    ( 0.0000,  0.0000,  0.0000)
  14 Pt     1.411459    2.415240   20.446881    ( 0.0000,  0.0000,  0.0000)
  15 Pt     4.177936    2.412130   20.446362    ( 0.0000,  0.0000,  0.0000)
  16 C      0.010215    0.005898   22.549692    ( 0.0000,  0.0000,  0.0000)
  17 O     -0.000523   -0.000301   23.711468    ( 0.0000,  0.0000,  0.0000)

Unit cell:
           periodic     x           y           z      points  spacing
  1. axis:    yes    5.543717    0.000000    0.000000    27     0.1778
  2. axis:    yes    2.771859    4.801000    0.000000    27     0.1778
  3. axis:    yes    0.000000    0.000000   36.789639   175     0.2102

  Lengths:   5.543717   5.543717  36.789639
  Angles:   90.000000  90.000000  60.000000

Effective grid spacing dv^(1/3) = 0.1973

     iter     time        total  log10-change:
                         energy   eigst   dens
iter:   1 03:33:22  -112.817921   -3.30
iter:   2 03:34:30  -116.639480   -2.28  -2.30
iter:   3 03:35:38  -112.632177   -2.70  -1.74
iter:   4 03:36:45  -112.592434   -3.77  -2.79
iter:   5 03:37:53  -112.592422c  -4.77  -3.37
iter:   6 03:39:01  -112.590784c  -5.07  -3.26
iter:   7 03:40:08  -112.590627c  -5.83  -3.66
iter:   8 03:41:16  -112.590462c  -6.04  -3.66
iter:   9 03:42:23  -112.590369c  -6.15  -3.70
iter:  10 03:43:30  -112.590176c  -6.26  -3.91
iter:  11 03:44:38  -112.590177c  -7.06  -4.23c
iter:  12 03:45:46  -112.590143c  -6.83  -4.29c
iter:  13 03:46:54  -112.590117c  -7.13  -4.25c
iter:  14 03:48:01  -112.590114c  -7.67c -4.46c

Converged after 14 iterations.

Dipole moment: (-1.625563, -0.938470, 0.059115) |e|*Ang

Energy contributions relative to reference atoms: (reference = -8009074.284696)

Kinetic:       -142.255277
Potential:     +102.427116
External:        +0.000000
XC:             -63.940876
Entropy (-ST):   -0.879419
Local:           -8.381367
SIC:             +0.000000
--------------------------
Free energy:   -113.029823
Extrapolated:  -112.590114

Showing only first 2 kpts
 Kpt  Band  Eigenvalues  Occupancy
  0   131     -1.11019    1.49887
  0   132     -1.08110    1.38196
  0   133     -0.97885    0.89156
  0   134     -0.96577    0.82745

  1   131     -1.12935    1.56737
  1   132     -1.10219    1.46825
  1   133     -1.04274    1.20752
  1   134     -0.96882    0.84230


Fermi level: -1.00063

No gap
No difference between direct/indirect transitions

Forces in eV/Ang:
  0 Pt   -0.01030   -0.00594    0.03404
  1 Pt   -0.02400    0.06001   -0.01684
  2 Pt    0.03998   -0.05079   -0.01684
  3 Pt   -0.06223   -0.03592   -0.01556
  4 Pt    0.00426    0.00246    0.00506
  5 Pt   -0.00874   -0.00263    0.00144
  6 Pt   -0.00665   -0.00625    0.00144
  7 Pt   -0.00374   -0.00216    0.03499
  8 Pt    0.00770   -0.02552    0.00239
  9 Pt    0.01531    0.00884    0.08465
 10 Pt    0.03130    0.01807    0.01240
 11 Pt   -0.01825    0.01942    0.00240
 12 Pt    0.01127    0.00651   -0.02015
 13 Pt    0.00330   -0.00123    0.00762
 14 Pt    0.00059    0.00347    0.00762
 15 Pt    0.01200    0.00693    0.01862
 16 C     0.00338    0.00195    0.00617
 17 O     0.00316    0.00183    0.00460

System changes: positions 

Initializing position-dependent things.

Density initialized from wave functions
                                
                                
                                
                                
                                
                                
       O                        
                                
       C                        
            Pt     Pt           
       Pt    PPt    Pt          
                                
        Pt     Pt               
                                
                Pt    Pt        
           Pt     Pt            
                                
            Pt     Pt           
       Pt     Pt                
                                
                                
                                
                                

Atomic positions and initial magnetic moments

Positions:
   0 Pt     0.000000    0.000000   13.500000    ( 0.0000,  0.0000,  0.0000)
   1 Pt     2.771859    0.000000   13.500000    ( 0.0000,  0.0000,  0.0000)
   2 Pt     1.385929    2.400500   13.500000    ( 0.0000,  0.0000,  0.0000)
   3 Pt     4.157788    2.400500   13.500000    ( 0.0000,  0.0000,  0.0000)
   4 Pt     1.375419    0.794099   15.846169    ( 0.0000,  0.0000,  0.0000)
   5 Pt     4.153104    0.795344   15.845652    ( 0.0000,  0.0000,  0.0000)
   6 Pt     2.765340    3.199022   15.845652    ( 0.0000,  0.0000,  0.0000)
   7 Pt     5.537128    3.196863   15.827691    ( 0.0000,  0.0000,  0.0000)
   8 Pt     0.011420    1.591300   18.176796    ( 0.0000,  0.0000,  0.0000)
   9 Pt     2.781761    1.606050   18.130231    ( 0.0000,  0.0000,  0.0000)
  10 Pt     1.408972    4.014136   18.169823    ( 0.0000,  0.0000,  0.0000)
  11 Pt     4.155675    4.015239   18.176797    ( 0.0000,  0.0000,  0.0000)
  12 Pt     0.027400    0.015817   20.710210    ( 0.0000,  0.0000,  0.0000)
  13 Pt     2.798421    0.015328   20.453745    ( 0.0000,  0.0000,  0.0000)
  14 Pt     1.412487    2.415836   20.453745    ( 0.0000,  0.0000,  0.0000)
  15 Pt     4.178713    2.412579   20.453051    ( 0.0000,  0.0000,  0.0000)
  16 C      0.010703    0.006179   22.552565    ( 0.0000,  0.0000,  0.0000)
  17 O     -0.000355   -0.000204   23.714099    ( 0.0000,  0.0000,  0.0000)

Unit cell:
           periodic     x           y           z      points  spacing
  1. axis:    yes    5.543717    0.000000    0.000000    27     0.1778
  2. axis:    yes    2.771859    4.801000    0.000000    27     0.1778
  3. axis:    yes    0.000000    0.000000   36.789639   175     0.2102

  Lengths:   5.543717   5.543717  36.789639
  Angles:   90.000000  90.000000  60.000000

Effective grid spacing dv^(1/3) = 0.1973

     iter     time        total  log10-change:
                         energy   eigst   dens
iter:   1 03:49:27  -112.816762   -3.30
iter:   2 03:50:35  -116.256980   -2.30  -2.32
iter:   3 03:51:43  -112.647686   -2.71  -1.75
iter:   4 03:52:50  -112.594276   -3.76  -2.74
iter:   5 03:53:57  -112.592469c  -4.79  -3.39
iter:   6 03:55:04  -112.591642c  -5.31  -3.49
iter:   7 03:56:13  -112.591133c  -5.61  -3.71
iter:   8 03:57:20  -112.591008c  -6.23  -3.83
iter:   9 03:58:28  -112.591035c  -6.55  -3.93
iter:  10 03:59:35  -112.590869c  -6.57  -3.98
iter:  11 04:00:42  -112.590759c  -6.80  -4.14c
iter:  12 04:01:50  -112.590699c  -7.15  -4.38c
iter:  13 04:02:57  -112.590667c  -7.33  -4.51c
iter:  14 04:04:05  -112.590648c  -7.62c -4.63c

Converged after 14 iterations.

Dipole moment: (-1.694230, -0.978111, 0.059849) |e|*Ang

Energy contributions relative to reference atoms: (reference = -8009074.284696)

Kinetic:       -143.300332
Potential:     +103.340269
External:        +0.000000
XC:             -63.806189
Entropy (-ST):   -0.879352
Local:           -8.384720
SIC:             +0.000000
--------------------------
Free energy:   -113.030324
Extrapolated:  -112.590648

Showing only first 2 kpts
 Kpt  Band  Eigenvalues  Occupancy
  0   131     -1.11094    1.50036
  0   132     -1.08201    1.38437
  0   133     -0.98022    0.89656
  0   134     -0.96787    0.83595

  1   131     -1.12926    1.56587
  1   132     -1.10253    1.46819
  1   133     -1.04382    1.21101
  1   134     -0.96896    0.84125


Fermi level: -1.00098

No gap
No difference between direct/indirect transitions

Forces in eV/Ang:
  0 Pt   -0.00973   -0.00562    0.04414
  1 Pt   -0.02398    0.06527   -0.00652
  2 Pt    0.04454   -0.05340   -0.00653
  3 Pt   -0.06618   -0.03821   -0.00529
  4 Pt    0.00943    0.00544    0.00110
  5 Pt   -0.01593    0.00159   -0.00140
  6 Pt   -0.00659   -0.01459   -0.00140
  7 Pt   -0.00651   -0.00376    0.04650
  8 Pt    0.00903    0.00620    0.00273
  9 Pt    0.01583    0.00914    0.06851
 10 Pt    0.00483    0.00279    0.01446
 11 Pt    0.00988    0.00472    0.00273
 12 Pt    0.00917    0.00529   -0.03891
 13 Pt    0.00420   -0.01185   -0.02136
 14 Pt   -0.00816    0.00956   -0.02136
 15 Pt    0.02199    0.01270   -0.00848
 16 C     0.00161    0.00093   -0.00461
 17 O     0.00191    0.00110    0.02446

System changes: positions 

Initializing position-dependent things.

Density initialized from wave functions
                                
                                
                                
                                
                                
                                
       O                        
                                
       C                        
            Pt     Pt           
       Pt    PPt    Pt          
                                
        Pt     Pt               
                                
                Pt    Pt        
           Pt     Pt            
                                
            Pt     Pt           
       Pt     Pt                
                                
                                
                                
                                

Atomic positions and initial magnetic moments

Positions:
   0 Pt     0.000000    0.000000   13.500000    ( 0.0000,  0.0000,  0.0000)
   1 Pt     2.771859    0.000000   13.500000    ( 0.0000,  0.0000,  0.0000)
   2 Pt     1.385929    2.400500   13.500000    ( 0.0000,  0.0000,  0.0000)
   3 Pt     4.157788    2.400500   13.500000    ( 0.0000,  0.0000,  0.0000)
   4 Pt     1.375574    0.794188   15.846560    ( 0.0000,  0.0000,  0.0000)
   5 Pt     4.152944    0.795352   15.845977    ( 0.0000,  0.0000,  0.0000)
   6 Pt     2.765267    3.198879   15.845977    ( 0.0000,  0.0000,  0.0000)
   7 Pt     5.537104    3.196848   15.829638    ( 0.0000,  0.0000,  0.0000)
   8 Pt     0.011585    1.591213   18.178214    ( 0.0000,  0.0000,  0.0000)
   9 Pt     2.782082    1.606235   18.132531    ( 0.0000,  0.0000,  0.0000)
  10 Pt     1.409212    4.014274   18.171441    ( 0.0000,  0.0000,  0.0000)
  11 Pt     4.155682    4.015425   18.178214    ( 0.0000,  0.0000,  0.0000)
  12 Pt     0.027798    0.016047   20.711197    ( 0.0000,  0.0000,  0.0000)
  13 Pt     2.798650    0.015375   20.454270    ( 0.0000,  0.0000,  0.0000)
  14 Pt     1.412642    2.416011   20.454271    ( 0.0000,  0.0000,  0.0000)
  15 Pt     4.179146    2.412829   20.453773    ( 0.0000,  0.0000,  0.0000)
  16 C      0.010800    0.006235   22.553880    ( 0.0000,  0.0000,  0.0000)
  17 O     -0.000297   -0.000170   23.715447    ( 0.0000,  0.0000,  0.0000)

Unit cell:
           periodic     x           y           z      points  spacing
  1. axis:    yes    5.543717    0.000000    0.000000    27     0.1778
  2. axis:    yes    2.771859    4.801000    0.000000    27     0.1778
  3. axis:    yes    0.000000    0.000000   36.789639   175     0.2102

  Lengths:   5.543717   5.543717  36.789639
  Angles:   90.000000  90.000000  60.000000

Effective grid spacing dv^(1/3) = 0.1973

     iter     time        total  log10-change:
                         energy   eigst   dens
iter:   1 04:05:31  -112.605571   -4.49
iter:   2 04:06:38  -112.899013   -3.46  -2.88
iter:   3 04:07:47  -112.592124   -3.79  -2.25
iter:   4 04:08:54  -112.591432   -5.21  -3.69
iter:   5 04:10:01  -112.591321c  -6.43  -3.81
iter:   6 04:11:11  -112.591204c  -6.51  -3.89
iter:   7 04:12:19  -112.591168c  -7.06  -4.23c
iter:   8 04:13:26  -112.591177c  -7.48c -4.47c

Converged after 8 iterations.

Dipole moment: (-1.707115, -0.985549, 0.059670) |e|*Ang

Energy contributions relative to reference atoms: (reference = -8009074.284696)

Kinetic:       -143.310439
Potential:     +103.333526
External:        +0.000000
XC:             -63.789308
Entropy (-ST):   -0.878790
Local:           -8.385561
SIC:             +0.000000
--------------------------
Free energy:   -113.030572
Extrapolated:  -112.591177

Showing only first 2 kpts
 Kpt  Band  Eigenvalues  Occupancy
  0   131     -1.11185    1.50285
  0   132     -1.08239    1.38494
  0   133     -0.98038    0.89616
  0   134     -0.96821    0.83643

  1   131     -1.12955    1.56600
  1   132     -1.10301    1.46910
  1   133     -1.04411    1.21120
  1   134     -0.96892    0.83987


Fermi level: -1.00122

No gap
No difference between direct/indirect transitions

Forces in eV/Ang:
  0 Pt   -0.00967   -0.00558    0.04599
  1 Pt   -0.02380    0.06100   -0.00187
  2 Pt    0.04093   -0.05111   -0.00187
  3 Pt   -0.06212   -0.03586   -0.00037
  4 Pt    0.00594    0.00343    0.00719
  5 Pt   -0.01233    0.00039    0.00561
  6 Pt   -0.00583   -0.01087    0.00561
  7 Pt   -0.00634   -0.00366    0.02944
  8 Pt    0.00865    0.00159   -0.01384
  9 Pt    0.01321    0.00763    0.03869
 10 Pt    0.00916    0.00528   -0.00538
 11 Pt    0.00570    0.00670   -0.01384
 12 Pt    0.00590    0.00341   -0.03537
 13 Pt    0.00435   -0.01032   -0.01063
 14 Pt   -0.00676    0.00893   -0.01063
 15 Pt    0.01832    0.01058    0.00104
 16 C     0.00477    0.00276   -0.01374
 17 O     0.00321    0.00185    0.01172

Writing to outputs/co_on_top_relaxed.gpw (mode='')

Timing:                                      incl.     excl.
-------------------------------------------------------------------
Density initialized from wave functions:    72.061    72.061   0.3% |
 Symmetrize density:                         0.000     0.000   0.0% |
Forces:                                    190.199   190.199   0.8% |
Hamiltonian:                                17.191     0.031   0.0% |
 Atomic:                                    10.925     0.031   0.0% |
  XC Correction:                            10.894    10.894   0.0% |
 Calculate atomic Hamiltonians:              2.551     2.551   0.0% |
 Communicate:                                0.000     0.000   0.0% |
 Initialize Hamiltonian:                     0.002     0.002   0.0% |
 Poisson:                                    0.027     0.027   0.0% |
 XC 3D grid:                                 3.655     3.655   0.0% |
LCAO initialization:                        62.204     0.107   0.0% |
 LCAO eigensolver:                           2.247     0.002   0.0% |
  Calculate projections:                     0.043     0.043   0.0% |
  DenseAtomicCorrection:                     0.071     0.071   0.0% |
  Distribute overlap matrix:                 0.003     0.003   0.0% |
  Orbital Layouts:                           0.408     0.408   0.0% |
  Potential matrix:                          1.695     1.695   0.0% |
  Sum over cells:                            0.025     0.025   0.0% |
 LCAO to grid:                              58.683    58.683   0.2% |
 Set positions (LCAO WFS):                   1.167     0.181   0.0% |
  Basic WFS set positions:                   0.000     0.000   0.0% |
  Basis functions set positions:             0.000     0.000   0.0% |
  P tci:                                     0.778     0.778   0.0% |
  ST tci:                                    0.195     0.195   0.0% |
  mktci:                                     0.012     0.012   0.0% |
PWDescriptor:                                0.239     0.239   0.0% |
Redistribute:                                0.187     0.187   0.0% |
SCF-cycle:                               24563.675     1.644   0.0% |
 Davidson:                               22897.196  4067.793  16.3% |------|
  Apply H:                                2930.439  2898.531  11.6% |----|
   HMM T:                                   31.908    31.908   0.1% |
  Subspace diag:                          4088.892     0.848   0.0% |
   calc_h_matrix:                         3289.216   380.361   1.5% ||
    Apply H:                              2908.855  2877.423  11.5% |----|
     HMM T:                                 31.431    31.431   0.1% |
   diagonalize:                             77.274    77.274   0.3% |
   rotate_psi:                             721.555   721.555   2.9% ||
  calc. matrices:                         9335.396  3541.677  14.2% |-----|
   Apply H:                               5793.719  5731.212  22.9% |--------|
    HMM T:                                  62.508    62.508   0.3% |
  diagonalize:                            1014.005  1014.005   4.1% |-|
  rotate_psi:                             1460.670  1460.670   5.8% |-|
 Density:                                 1275.922     0.005   0.0% |
  Atomic density matrices:                   5.861     5.861   0.0% |
  Mix:                                      34.641    34.641   0.1% |
  Multipole moments:                         0.084     0.084   0.0% |
  Pseudo density:                         1235.331  1235.325   4.9% |-|
   Symmetrize density:                       0.005     0.005   0.0% |
 Hamiltonian:                              289.688     0.537   0.0% |
  Atomic:                                  185.061     0.493   0.0% |
   XC Correction:                          184.568   184.568   0.7% |
  Calculate atomic Hamiltonians:            42.856    42.856   0.2% |
  Communicate:                               0.001     0.001   0.0% |
  Poisson:                                   0.443     0.443   0.0% |
  XC 3D grid:                               60.789    60.789   0.2% |
 Orthonormalize:                            99.225     0.060   0.0% |
  calc_s_matrix:                            19.952    19.952   0.1% |
  inverse-cholesky:                          0.805     0.805   0.0% |
  projections:                              57.740    57.740   0.2% |
  rotate_psi_s:                             20.669    20.669   0.1% |
Set symmetry:                                0.000     0.000   0.0% |
Other:                                      77.175    77.175   0.3% |
-------------------------------------------------------------------
Total:                                             24982.932 100.0%

Memory usage: 2.20 GiB
Date: Thu Feb 19 04:13:36 2026
