18
Lattice="5.5437171645025325 0.0 0.0 2.7718585822512662 4.800999895855028 0.0 0.0 0.0 36.789639165669996" Properties=species:S:1:pos:R:3:move_mask:L:1:tags:I:1:magmoms:R:1 energy=-112.28018904656086 free_energy=-112.72749234187127 dipole="-0.011651142481005447 -0.0067268085032478695 0.058136576599242" magmom=0.0 pbc="T T T"
Pt       0.00000000       0.00000000      13.50000000  F        4       0.00000000
Pt       2.77185858       0.00000000      13.50000000  F        4       0.00000000
Pt       1.38592929       2.40049995      13.50000000  F        4       0.00000000
Pt       4.15778787       2.40049995      13.50000000  F        4       0.00000000
Pt       1.38592929       0.80016665      15.76321306  T        3       0.00000000
Pt       4.15778787       0.80016665      15.76321306  T        3       0.00000000
Pt       2.77185858       3.20066660      15.76321306  T        3       0.00000000
Pt       5.54371716       3.20066660      15.76321306  T        3       0.00000000
Pt       0.00000000       1.60033330      18.02642611  T        2       0.00000000
Pt       2.77185858       1.60033330      18.02642611  T        2       0.00000000
Pt       1.38592929       4.00083325      18.02642611  T        2       0.00000000
Pt       4.15778787       4.00083325      18.02642611  T        2       0.00000000
Pt       0.00000000       0.00000000      20.28963917  T        1       0.00000000
Pt       2.77185858       0.00000000      20.28963917  T        1       0.00000000
Pt       1.38592929       2.40049995      20.28963917  T        1       0.00000000
Pt       4.15778787       2.40049995      20.28963917  T        1       0.00000000
C        0.00000000       0.00000000      22.13963917  T        0       0.00000000
O        0.00000000       0.00000000      23.28963917  T        0       0.00000000
