18
Lattice="5.5437171645025325 0.0 0.0 2.7718585822512662 4.800999895855028 0.0 0.0 0.0 36.789639165669996" Properties=species:S:1:pos:R:3:move_mask:L:1:tags:I:1:magmoms:R:1:forces:R:3 energy=-112.59117680452718 free_energy=-113.03057190942259 dipole="-1.7071145732322863 -0.9855487584256971 0.05967027699812725" magmom=0.0 pbc="T T T"
Pt       0.00000000       0.00000000      13.50000000  F        4       0.00000000      -0.00966895      -0.00558113       0.04599447
Pt       2.77185858       0.00000000      13.50000000  F        4       0.00000000      -0.02379672       0.06100360      -0.00187132
Pt       1.38592929       2.40049995      13.50000000  F        4       0.00000000       0.04093195      -0.05110772      -0.00187148
Pt       4.15778787       2.40049995      13.50000000  F        4       0.00000000      -0.06211898      -0.03586276      -0.00037334
Pt       1.37557377       0.79418812      15.84655982  T        3       0.00000000       0.00594450       0.00343247       0.00718946
Pt       4.15294361       0.79535245      15.84597670  T        3       0.00000000      -0.01232655       0.00039043       0.00560842
Pt       2.76526711       3.19887891      15.84597701  T        3       0.00000000      -0.00582557      -0.01087054       0.00560860
Pt       5.53710352       3.19684836      15.82963777  T        3       0.00000000      -0.00633699      -0.00365794       0.02944132
Pt       0.01158484       1.59121262      18.17821374  T        2       0.00000000       0.00865346       0.00159124      -0.01383597
Pt       2.78208238       1.60623506      18.13253085  T        2       0.00000000       0.01321341       0.00762850       0.03868776
Pt       1.40921152       4.01427436      18.17144122  T        2       0.00000000       0.00915544       0.00528400      -0.00538220
Pt       4.15568195       4.01542523      18.17821416  T        2       0.00000000       0.00570457       0.00669723      -0.01383800
Pt       0.02779799       0.01604689      20.71119688  T        1       0.00000000       0.00589990       0.00340536      -0.03537040
Pt       2.79865021       0.01537468      20.45427050  T        1       0.00000000       0.00435439      -0.01032043      -0.01062771
Pt       1.41264211       2.41601149      20.45427106  T        1       0.00000000      -0.00676043       0.00892912      -0.01062841
Pt       4.17914577       2.41282856      20.45377289  T        1       0.00000000       0.01832014       0.01057697       0.00103836
C        0.01079958       0.00623525      22.55388039  T        0       0.00000000       0.00477353       0.00275577      -0.01373965
O       -0.00029654      -0.00016984      23.71544749  T        0       0.00000000       0.00321030       0.00185379       0.01172395
