
  ___ ___ ___ _ _ _  
 |   |   |_  | | | | 
 | | | | | . | | | | 
 |__ |  _|___|_____|  25.7.0
 |___|_|             

User:   ankitapuri@Ankitas-MacBook-Air-2.local
Date:   Wed Feb 18 09:20:22 2026
Arch:   x86_64
Pid:    52995
CWD:    /Users/ankitapuri/Desktop/cat-adsorption-dft
Python: 3.10.19
gpaw:   /opt/miniconda3/envs/gpaw-x64/lib/python3.10/site-packages/gpaw
_gpaw:  /opt/miniconda3/envs/gpaw-x64/lib/python3.10/site-packages/
        _gpaw.cpython-310-darwin.so
ase:    /opt/miniconda3/envs/gpaw-x64/lib/python3.10/site-packages/ase (version 3.27.0)
numpy:  /opt/miniconda3/envs/gpaw-x64/lib/python3.10/site-packages/numpy (version 2.2.6)
scipy:  /opt/miniconda3/envs/gpaw-x64/lib/python3.10/site-packages/scipy (version 1.15.2)
libxc:  7.0.0
units:  Angstrom and eV
cores: 1
OpenMP: True
OMP_NUM_THREADS: 1

Input parameters:
  kpts: [4 4 1]
  mode: {ecut: 400.0,
         name: pw}
  occupations: {fixmagmom: False,
                name: fermi-dirac,
                width: 0.1}
  symmetry: off
  xc: PBE

System changes: positions, numbers, cell, pbc, initial_charges, initial_magmoms 

Initialize ...

species:
  Pt:
    name: Platinum
    id: 5ed695806aff0c961dba1a84acd7f4b2
    Z: 78.0
    valence: 16
    core: 62
    charge: 0.0
    file: /opt/miniconda3/envs/gpaw-x64/lib/python3.10/site-packages/gpaw_data/setups/Pt.PBE.gz
    compensation charges: {type: gauss,
                           rc: 0.41,
                           lmax: 2}
    cutoffs: {filter: 2.26,
              core: 2.26}
    projectors:
      #              energy  rcut
      - 6s(1.00)    -5.628   1.307
      - 5p(6.00)   -56.051   1.371
      - 6p(0.00)    -0.845   1.371
      - 5d(9.00)    -6.153   1.307
      -  s          21.583   1.307
      -  d          21.058   1.307
  
    # Using partial waves for Pt as LCAO basis

  O:
    name: Oxygen
    id: 32ecd46bf208036f09c70b0ec9a88b78
    Z: 8.0
    valence: 6
    core: 2
    charge: 0.0
    file: /opt/miniconda3/envs/gpaw-x64/lib/python3.10/site-packages/gpaw_data/setups/O.PBE.gz
    compensation charges: {type: gauss,
                           rc: 0.21,
                           lmax: 2}
    cutoffs: {filter: 1.17,
              core: 0.83}
    projectors:
      #              energy  rcut
      - 2s(2.00)   -23.961   0.688
      - 2p(4.00)    -9.029   0.598
      -  s           3.251   0.688
      -  p          18.182   0.598
      -  d           0.000   0.619
  
    # Using partial waves for O as LCAO basis

  C:
    name: Carbon
    id: 4aa54d4b901d75f77cc0ea3eec22967b
    Z: 6.0
    valence: 4
    core: 2
    charge: 0.0
    file: /opt/miniconda3/envs/gpaw-x64/lib/python3.10/site-packages/gpaw_data/setups/C.PBE.gz
    compensation charges: {type: gauss,
                           rc: 0.20,
                           lmax: 2}
    cutoffs: {filter: 1.14,
              core: 1.14}
    projectors:
      #              energy  rcut
      - 2s(2.00)   -13.751   0.635
      - 2p(2.00)    -5.284   0.635
      -  s          13.461   0.635
      -  p          21.927   0.635
      -  d           0.000   0.635
  
    # Using partial waves for C as LCAO basis

Reference energy: -8009074.284696  # eV

Spin-paired calculation

Convergence criteria:
 Maximum [total energy] change in last 3 cyles: 0.0005 eV / valence electron
 Maximum integral of absolute [dens]ity change: 0.0001 electrons / valence electron
 Maximum integral of absolute [eigenst]ate change: 4e-08 eV^2 / valence electron
 Maximum number of scf [iter]ations: 333
 (Square brackets indicate name in SCF output, whereas a 'c' in
 the SCF output indicates the quantity has converged.)

Symmetries present (total): 1

  ( 1  0  0)
  ( 0  1  0)
  ( 0  0  1)

16 k-points: 4 x 4 x 1 Monkhorst-Pack grid
16 k-points in the irreducible part of the Brillouin zone
       k-points in crystal coordinates                weights
   0:    -0.37500000   -0.37500000    0.00000000          1/16
   1:    -0.37500000   -0.12500000    0.00000000          1/16
   2:    -0.37500000    0.12500000    0.00000000          1/16
   3:    -0.37500000    0.37500000    0.00000000          1/16
   4:    -0.12500000   -0.37500000    0.00000000          1/16
   5:    -0.12500000   -0.12500000    0.00000000          1/16
   6:    -0.12500000    0.12500000    0.00000000          1/16
   7:    -0.12500000    0.37500000    0.00000000          1/16
   8:     0.12500000   -0.37500000    0.00000000          1/16
   9:     0.12500000   -0.12500000    0.00000000          1/16
          ...
  15:     0.37500000    0.37500000    0.00000000          1/16

Wave functions: Plane wave expansion
  Cutoff energy: 400.000 eV
  Number of coefficients (min, max): 17703, 17847
  Pulay-stress correction: 0.000000 eV/Ang^3 (de/decut=0.000000)
  Using FFTW library
  ScaLapack parameters: grid=1x1, blocksize=None
  Wavefunction extrapolation:
    Improved wavefunction reuse through dual PAW basis 

Occupation numbers: Fermi-Dirac:
  width: 0.1000  # eV
 

Eigensolver
   Davidson(niter=2) 

Densities:
  Coarse grid: 27*27*175 grid
  Fine grid: 54*54*350 grid
  Total Charge: 0.000000 

Density mixing:
  Method: separate
  Backend: pulay
  Linear mixing parameter: 0.05
  old densities: 5
  Damping of long wavelength oscillations: 50 

Hamiltonian:
  XC and Coulomb potentials evaluated on a 54*54*350 grid
  Using the PBE Exchange-Correlation functional
  External potential:
    NoExternalPotential
 

XC parameters: PBE with 2 nearest neighbor stencil

Memory estimate:
  Process memory now: 201.65 MiB
  Calculator: 921.57 MiB
    Density: 63.47 MiB
      Arrays: 25.31 MiB
      Localized functions: 28.43 MiB
      Mixer: 9.73 MiB
    Hamiltonian: 17.31 MiB
      Arrays: 16.55 MiB
      XC: 0.00 MiB
      Poisson: 0.00 MiB
      vbar: 0.77 MiB
    Wavefunctions: 840.78 MiB
      Arrays psit_nG: 714.58 MiB
      Eigensolver: 50.13 MiB
      Projections: 12.57 MiB
      Projectors: 54.28 MiB
      PW-descriptor: 9.22 MiB

Total number of cores used: 1
OpenMP threads: 8

Number of atoms: 18
Number of atomic orbitals: 200
Number of bands in calculation: 164
Number of valence electrons: 266
Bands to converge: occupied

... initialized

Initializing position-dependent things.

Density initialized from atomic densities
Timing:                              incl.     excl.
-----------------------------------------------------------
Hamiltonian:                         3.513     0.003   0.0% |
 Atomic:                             0.699     0.002   0.0% |
  XC Correction:                     0.698     0.698   1.8% ||
 Calculate atomic Hamiltonians:      2.536     2.536   6.7% |--|
 Communicate:                        0.000     0.000   0.0% |
 Initialize Hamiltonian:             0.003     0.003   0.0% |
 Poisson:                            0.004     0.004   0.0% |
 XC 3D grid:                         0.268     0.268   0.7% |
LCAO initialization:                30.877     0.204   0.5% |
 LCAO eigensolver:                   5.201     0.002   0.0% |
  Calculate projections:             0.084     0.084   0.2% |
  DenseAtomicCorrection:             0.484     0.484   1.3% ||
  Distribute overlap matrix:         0.003     0.003   0.0% |
  Orbital Layouts:                   1.391     1.391   3.7% ||
  Potential matrix:                  3.168     3.168   8.3% |--|
  Sum over cells:                    0.069     0.069   0.2% |
 LCAO to grid:                      22.914    22.914  60.3% |-----------------------|
 Set positions (LCAO WFS):           2.559     0.559   1.5% ||
  Basic WFS set positions:           0.000     0.000   0.0% |
  Basis functions set positions:     0.000     0.000   0.0% |
  P tci:                             1.586     1.586   4.2% |-|
  ST tci:                            0.397     0.397   1.0% |
  mktci:                             0.016     0.016   0.0% |
PWDescriptor:                        0.287     0.287   0.8% |
Set symmetry:                        0.000     0.000   0.0% |
Other:                               3.350     3.350   8.8% |---|
-----------------------------------------------------------
Total:                                        38.028 100.0%

Date: Wed Feb 18 09:21:00 2026
                                                                                                                                                                                                                                                                                                                                                                                                                                                                                                                                                                                                                                                                                                                                                                                                                                                                                                                                                                                                                                                                                                                                                                                                                                                                                                                                                                                                                                                                                                                                                                                                                                                                                                                                                                                                                                                                                                                                                                                                                                                                                                                                                                                                                                                                                                                                                                                                                                                                                                                                                                                                                                                                                                                                                                                                                                                                                                                                                                                                                                                                                                                                                                                                                                                                                                                                                                                                                                                                                                                                                                                                                                                                                                                                                                                                                                                                                                                                                                                                                                                                                                                                                                                                                                                                                                                                                                                                                                                                                                                                                                                                                                                                                                                                                                                                                                                                                                                                                                                                                                                                                                                                                                                                                                                                                                                                                                                                                                                                                                                                                                                                                                                                                                                                                                                                                                                                                                                                                                                                                                                                                                                                                                                                                                                                                                                                                                                                                                                                                                                                                                                                                                                                                                                                                                                                                                                                                                                                                                                                                                                                                                                                                                                                                                                                                                                                                                                                                                                                                                                                                                                                                                                                                                                                                                                                                                                                                                                                                                                                                                                                                                                                                                                                                                                                                                                                                                                                                                                                                                                                                                                                                                                                                                                                                                                                                                                                                                                                                                                                                                                                                                                                                                                                                                                                                                                                                                                                                                                                                                                                                                                                                                                                                                                                                                                                                                                                                                                                                                                                                                                                                                                                                                                                                                                                                                                                                                                                                                                                                                                                                                                                                                                                                                                                                                                                                                                                                                                                                                                                                                                                                                                                                                                                                                                                                                                                                                                                                                                                                                                                                                                                                                                                                                                                                                                                                                                                                                                                                                                                                                                                                                                                                                                                                                                                                                                                                                                                                                                                                                                                                                                                                                                                                                                                                                                                                                                                                                                                                                                                                                                                                                                                                                                                                                                                                                                                                                                                                                                                                                                                                                                                                                                                                                                                                                                                                                                                                                                                                                                                                                                                                                                                                                                                                                                                                                                                                                                                                                                                                                                                                                                                                                                                                                                                                                                                                                                                                                                                                                                                                                                                                                                                                                                                                                                                                                                                                                                                                                                                                                                                                                                                                                                                                                                                                                                                                                                                                                                                                                                                                                                                                                                                                                                                                                                                                                                                                                                                                                                                                                                                                                                                                                                                                                                                                                                                                                                                                                                                                                                                                                                                                                                                                                                                                                                                                                                                                                                                                                                                                                                                                                                                                                                                                                                                                                                                                                                                                                                                                                                                                                                                                                                                                                                                                                                                                                                                                                                                                                                                                                                                                                                                                                                                                                                                                                                                                                                                                                                                                                                                                                                                                                                                                                                                                                                                                                                                                                                                                                                                                                                                                                                                                                                                                                                                                                                                                                                                                                                                                                                                                                                                                                                                                                                                                                                                                                                                                                                                                                                                                                                                                                                                                                                                                                                                                                                                                                                                                                                                                                                                                                                                                                                                                                                                                                                                                                                                                                                                                                                                                                                                                                                                                                                                                                                                                                                                                                                                                                                                                                                                                                                                                                                                                                                                                                                                                                                                                                                                                                                                                                                                                                                                                                                                                                                                                                                                                                                                                                                                                                                                                                                                                                                                                                                                                                                                                                                                                                                                                                                                                                                                                                                                                                                                                                                                                                                                                                                                                                                                                                                                                                                                                                                                                                                                                                                                                                                                                                                                                                                                                                                                                                                                                                                                                                                                                                                                                                                                                                                                                                                                                                                                                                                                                                                                                                                                                                                                                                                                                                                                                                                                                                                                                                                                                                                                                                                                                                                                                                                                                                                                                                                                                                                                                                                                                                                                                                                                                                                                                                                                                                                                                                                                                                                                                                                                                                                                                                                                                                                                                                                                                                                                                                                                                                                                                                                                                                                                                                                                                                                                                                                                                                                                                                                                                                                                                                                                                                                                                                                                                                                                                                                                                                                                                                                                                                                                                                                                                                                                                                                                                                                                                                                                                                                                                                                                                                                                                                                                                                                                                                                                                                                                                                                                                                                                                                                                                                                                                                                                                                                                                                                                                                                                                                                                                                                                                                                                                                                                                                                                                                                                                                                                                                                                                                                                                                                                                                                                                                                                                                                                                                                                                                                                                                                                                                                                                                                                                                                                                                                                                                                                                                                                                                                                                                                                                                                                                                                                                                                                                                                                                                                                                                                                                                                                                                                                                                                                                                                                                                                                                                                                                                                                                                                                                                                                                                                                                                                                                                                                                                                                                                                                                                                                                                                                                                                                                                                                                                                                                                                                                                                                                                                                                                                                                                                                                                                                                                                                                                                                                                                                                                                                                                                                                                                                                                                                                                                                                                                                                                                                                                                                                                                                                                                                                                                                                                                                                                                                                                                                                                                                                                                                                                                                                                                                                                                                                                                                                                                                                                                                                                                                                                                                                                                                                                                                                                                                                                                                                                                                                                                                                                                                                                                                                                                                                                                                                                                                                                                                                                                                                                                                                                                                                                                                                                                                                                                                                                                                                                                                                                                                                                                                                                                                                                                                                                                                                                                                                                                                                                                                                                                                                                                                                                                                                                                                                                                                                                                                                                                                                                                                                                                                                                                                                                                                                                                                                                                                                                                                                                                                                                                                                                                                                                                                                                                                                                                                                                                                                                                                                                                                                                                                                                                                                                                                                                                                                                                                                                                                                                                                                                                                                                                                                                                                                                                                                                                                                                                                                                                                                                                                                                                                                                                                                                                                                                                                                                                                                                                                                                                                                                                                                                                                                                                                                                                                                                                                                                                                                                                                                                                                                                                                                                                                                                                                                                                                                                                                                                                                                                                                                                                                                                                                                                                                                                                                                                                                                                                                                                                                                                                                                                                                                                                                                                                                                                                                                                                                                                                                                                                                                                                                                                                                                                                                                                                                                                                                                                                                                                                                                                                                                                                                                                                                                                                                                                                                                                                                                                                                                                                                                                                                                                                                                                                                                                                                                                                                                                                                                                                                                                                                                                                                                                                                                                                                                                                                                                                                                                                                                                                                                                                                                                                                                                                                                                                                                                                                                                                                                                                                                                                                                                                                                                                                                                                                                                                                                                                                                                                                                                                                                                                                                                                                                                                                                                                                                                                                                                                                                                                                                                                                                                                                                                                                                                                                                                                                                                                                                                                                                                                                                                                                                                                                                                                                                                                                                                                                                                                                                                                                                                                                                                                                                                                                                                                                                                                                                                                                                                                                                                                                                                                                                                                                                                                                                                                                                                                                                                                                                                                                                                                                                                                                                                                                                                                                                                                                                                                                                                                                                                                                                                                                                                                                                                                                                                                                                                                                                                                                                                                                                                                                                                                                    iter:  25 09:21:04  -112.392970c  -6.76  -3.66
iter:  26 09:22:26  -112.392954c  -7.12  -3.73
iter:  27 09:23:46  -112.393100c  -6.08  -3.76
iter:  28 09:25:06  -112.392917c  -6.76  -4.01c
iter:  29 09:26:28  -112.392902c  -7.31  -4.05c
iter:  30 09:27:39  -112.392912c  -7.28  -4.26c
iter:  31 09:28:59  -112.392881c  -7.44c -4.21c

Converged after 31 iterations.

Dipole moment: (0.230683, -0.737933, -0.141966) |e|*Ang

Energy contributions relative to reference atoms: (reference = -8009074.284696)

Kinetic:        -92.611972
Potential:      +61.299764
External:        +0.000000
XC:             -72.146671
Entropy (-ST):   -0.870790
Local:           -8.498607
SIC:             +0.000000
--------------------------
Free energy:   -112.828276
Extrapolated:  -112.392881

Showing only first 2 kpts
 Kpt  Band  Eigenvalues  Occupancy
  0   131     -1.39425    1.31391
  0   132     -1.38192    1.25734
  0   133     -1.32816    0.99444
  0   134     -1.26717    0.69910

  1   131     -1.47823    1.63202
  1   132     -1.44195    1.51048
  1   133     -1.37635    1.23114
  1   134     -1.31301    0.91889


Fermi level: -1.32927

No gap
No difference between direct/indirect transitions

Forces in eV/Ang:
  0 Pt   -0.06967   -0.03802   -0.48867
  1 Pt    0.06577    0.03801   -0.58251
  2 Pt    0.00936    0.00542   -0.48399
  3 Pt   -0.06773   -0.04136   -0.48870
  4 Pt   -0.00704   -0.00080    0.07645
  5 Pt    0.01359    0.00784    0.14890
  6 Pt   -0.01618   -0.00934    0.11061
  7 Pt   -0.00420   -0.00571    0.07646
  8 Pt    0.00634    0.00352   -0.00304
  9 Pt   -0.01041    0.02894   -0.06593
 10 Pt    0.01991   -0.02346   -0.06581
 11 Pt    0.02936    0.01698   -0.00854
 12 Pt    0.02648    0.05486    0.14248
 13 Pt   -0.00810   -0.00470    0.10460
 14 Pt   -0.00576   -0.00332    0.11024
 15 Pt    0.06080   -0.00466    0.14198
 16 O     0.00164   -0.00046    1.11707
 17 C    -0.04534   -0.02628    0.03565

System changes: positions 

Initializing position-dependent things.

Density initialized from wave functions
                                     
                                     
                                     
                                     
                                     
                                     
                                     
         O                           
             Pt     Pt               
         C                           
        Pt     Pt    Pt     Pt       
                                     
                Pt     Pt            
                 Pt                  
                        Pt           
            Pt     Pt                
                                     
             Pt     Pt               
        Pt     Pt                    
                                     
                                     
                                     
                                     
                                     

Atomic positions and initial magnetic moments

Positions:
   0 Pt     0.000000    0.000000   13.800000    ( 0.0000,  0.0000,  0.0000)
   1 Pt     2.771859    0.000000   13.800000    ( 0.0000,  0.0000,  0.0000)
   2 Pt     1.385929    2.400500   13.800000    ( 0.0000,  0.0000,  0.0000)
   3 Pt     4.157788    2.400500   13.800000    ( 0.0000,  0.0000,  0.0000)
   4 Pt     1.385985    0.795869   16.034224    ( 0.0000,  0.0000,  0.0000)
   5 Pt     4.159498    0.801152   16.071163    ( 0.0000,  0.0000,  0.0000)
   6 Pt     2.763923    3.196083   16.064571    ( 0.0000,  0.0000,  0.0000)
   7 Pt     5.540023    3.202867   16.034222    ( 0.0000,  0.0000,  0.0000)
   8 Pt     5.547391    1.602441   18.320500    ( 0.0000,  0.0000,  0.0000)
   9 Pt     2.778655    1.604517   18.315918    ( 0.0000,  0.0000,  0.0000)
  10 Pt     6.936675    4.004634   18.315933    ( 0.0000,  0.0000,  0.0000)
  11 Pt     4.168787    4.007182   18.289328    ( 0.0000,  0.0000,  0.0000)
  12 Pt     0.007445    0.007894   20.697119    ( 0.0000,  0.0000,  0.0000)
  13 Pt     2.794772    0.013236   20.609507    ( 0.0000,  0.0000,  0.0000)
  14 Pt     1.368438    2.390414   20.611925    ( 0.0000,  0.0000,  0.0000)
  15 Pt     4.168359    2.402964   20.696952    ( 0.0000,  0.0000,  0.0000)
  16 O      0.693202   -1.200742   23.333991    ( 0.0000,  0.0000,  0.0000)
  17 C      0.675801   -1.210318   22.151134    ( 0.0000,  0.0000,  0.0000)

Unit cell:
           periodic     x           y           z      points  spacing
  1. axis:    yes    5.543717    0.000000    0.000000    27     0.1778
  2. axis:    yes    2.771859    4.801000    0.000000    27     0.1778
  3. axis:    yes    0.000000    0.000000   36.789639   175     0.2102

  Lengths:   5.543717   5.543717  36.789639
  Angles:   90.000000  90.000000  60.000000

Effective grid spacing dv^(1/3) = 0.1973

     iter     time        total  log10-change:
                         energy   eigst   dens
iter:   1 09:30:36  -120.486741   -1.34
iter:   2 09:31:46  -165.522229   -0.75  -1.59
iter:   3 09:32:56  -115.949608   -1.44  -1.22
iter:   4 09:34:11  -112.752751   -2.19  -1.86
iter:   5 09:35:30  -112.580670   -3.02  -2.29
iter:   6 09:36:51  -112.562335   -3.54  -2.50
iter:   7 09:38:16  -112.614785c  -3.46  -2.54
iter:   8 09:39:41  -112.550618c  -3.56  -2.52
iter:   9 09:41:04  -112.524128c  -4.21  -2.62
iter:  10 09:42:27  -112.518981c  -4.90  -2.89
iter:  11 09:43:53  -112.517031c  -4.77  -3.06
iter:  12 09:45:14  -112.516965c  -4.74  -3.22
iter:  13 09:46:36  -112.516267c  -5.11  -3.23
iter:  14 09:47:59  -112.515503c  -5.34  -3.32
iter:  15 09:49:24  -112.514806c  -5.63  -3.49
iter:  16 09:50:50  -112.514918c  -5.73  -3.69
iter:  17 09:52:13  -112.514795c  -6.21  -3.78
iter:  18 09:53:43  -112.514794c  -6.76  -3.92
iter:  19 09:55:17  -112.514802c  -6.61  -3.99
iter:  20 09:56:46  -112.514705c  -6.57  -3.90
iter:  21 09:58:09  -112.514754c  -7.15  -4.26c
iter:  22 09:59:38  -112.514728c  -7.08  -4.32c
iter:  23 10:01:06  -112.514752c  -7.51c -4.46c

Converged after 23 iterations.

Dipole moment: (-0.280240, -0.094953, -0.141305) |e|*Ang

Energy contributions relative to reference atoms: (reference = -8009074.284696)

Kinetic:       -104.379933
Potential:      +71.107884
External:        +0.000000
XC:             -70.320822
Entropy (-ST):   -0.872870
Local:           -8.485446
SIC:             +0.000000
--------------------------
Free energy:   -112.951187
Extrapolated:  -112.514752

Showing only first 2 kpts
 Kpt  Band  Eigenvalues  Occupancy
  0   131     -1.37845    1.26398
  0   132     -1.36961    1.22238
  0   133     -1.32431    0.99967
  0   134     -1.26257    0.70044

  1   131     -1.47218    1.62855
  1   132     -1.43975    1.52038
  1   133     -1.37292    1.23805
  1   134     -1.31143    0.93535


Fermi level: -1.32438

No gap
No difference between direct/indirect transitions

Forces in eV/Ang:
  0 Pt   -0.10870   -0.05592   -0.54409
  1 Pt    0.10749    0.06208   -0.66897
  2 Pt    0.03449    0.01990   -0.55965
  3 Pt   -0.10278   -0.06619   -0.54412
  4 Pt   -0.02082    0.02525    0.20882
  5 Pt    0.00532    0.00306    0.11707
  6 Pt    0.00987    0.00571    0.11051
  7 Pt    0.01148   -0.03067    0.20885
  8 Pt   -0.07560   -0.04376    0.42775
  9 Pt    0.03868    0.04042    0.16196
 10 Pt    0.05438    0.01329    0.16210
 11 Pt   -0.00324   -0.00186    0.20825
 12 Pt   -0.09489    0.19331    0.19049
 13 Pt    0.11713    0.06758   -0.03515
 14 Pt   -0.08554   -0.04943   -0.02759
 15 Pt    0.12012   -0.17915    0.18987
 16 O    -0.03985   -0.02381    0.23322
 17 C     0.03718    0.02087    0.12517

System changes: positions 

Initializing position-dependent things.

Density initialized from wave functions
                                     
                                     
                                     
                                     
                                     
                                     
                                     
         O                           
             Pt     Pt               
         C                           
        Pt     Pt    Pt     Pt       
                                     
                Pt     Pt            
                 Pt                  
                        Pt           
            Pt     Pt                
                                     
             Pt     Pt               
        Pt     Pt                    
                                     
                                     
                                     
                                     
                                     

Atomic positions and initial magnetic moments

Positions:
   0 Pt     0.000000    0.000000   13.800000    ( 0.0000,  0.0000,  0.0000)
   1 Pt     2.771859    0.000000   13.800000    ( 0.0000,  0.0000,  0.0000)
   2 Pt     1.385929    2.400500   13.800000    ( 0.0000,  0.0000,  0.0000)
   3 Pt     4.157788    2.400500   13.800000    ( 0.0000,  0.0000,  0.0000)
   4 Pt     1.385678    0.795582   16.031475    ( 0.0000,  0.0000,  0.0000)
   5 Pt     4.159825    0.801340   16.072658    ( 0.0000,  0.0000,  0.0000)
   6 Pt     2.762860    3.195469   16.065062    ( 0.0000,  0.0000,  0.0000)
   7 Pt     5.539621    3.202745   16.031473    ( 0.0000,  0.0000,  0.0000)
   8 Pt     5.545729    1.601476   18.330013    ( 0.0000,  0.0000,  0.0000)
   9 Pt     2.781220    1.606308   18.319778    ( 0.0000,  0.0000,  0.0000)
  10 Pt     6.939512    4.005962   18.319799    ( 0.0000,  0.0000,  0.0000)
  11 Pt     4.169907    4.007828   18.289929    ( 0.0000,  0.0000,  0.0000)
  12 Pt     0.013775    0.000886   20.726919    ( 0.0000,  0.0000,  0.0000)
  13 Pt     2.799308    0.015855   20.611005    ( 0.0000,  0.0000,  0.0000)
  14 Pt     1.366038    2.389029   20.614606    ( 0.0000,  0.0000,  0.0000)
  15 Pt     4.165461    2.411937   20.726708    ( 0.0000,  0.0000,  0.0000)
  16 O      0.692493   -1.201268   23.386041    ( 0.0000,  0.0000,  0.0000)
  17 C      0.673350   -1.211770   22.201316    ( 0.0000,  0.0000,  0.0000)

Unit cell:
           periodic     x           y           z      points  spacing
  1. axis:    yes    5.543717    0.000000    0.000000    27     0.1778
  2. axis:    yes    2.771859    4.801000    0.000000    27     0.1778
  3. axis:    yes    0.000000    0.000000   36.789639   175     0.2102

  Lengths:   5.543717   5.543717  36.789639
  Angles:   90.000000  90.000000  60.000000

Effective grid spacing dv^(1/3) = 0.1973

     iter     time        total  log10-change:
                         energy   eigst   dens
iter:   1 10:03:00  -112.668257   -2.21
iter:   2 10:04:26  -113.715416   -2.66  -2.42
iter:   3 10:05:55  -112.574097   -3.03  -1.98
iter:   4 10:07:21  -112.537545   -4.18  -2.71
iter:   5 10:08:48  -112.535589c  -4.42  -3.03
iter:   6 10:10:13  -112.533248c  -4.68  -3.06
iter:   7 10:11:36  -112.533070c  -5.42  -3.39
iter:   8 10:13:05  -112.532890c  -5.34  -3.35
iter:   9 10:14:32  -112.533158c  -5.13  -3.58
iter:  10 10:16:01  -112.534279c  -5.44  -3.52
iter:  11 10:17:26  -112.532451c  -5.80  -3.35
iter:  12 10:18:45  -112.532329c  -5.86  -3.82
iter:  13 10:20:09  -112.532395c  -6.61  -4.04c
iter:  14 10:21:56  -112.532336c  -6.63  -4.16c
iter:  15 10:23:20  -112.532348c  -7.16  -4.30c
iter:  16 10:24:40  -112.532330c  -7.38  -4.53c
iter:  17 10:25:53  -112.532341c  -7.64c -4.60c

Converged after 17 iterations.

Dipole moment: (-0.448978, 0.055013, -0.141323) |e|*Ang

Energy contributions relative to reference atoms: (reference = -8009074.284696)

Kinetic:       -108.974295
Potential:      +74.964522
External:        +0.000000
XC:             -69.609455
Entropy (-ST):   -0.871973
Local:           -8.477126
SIC:             +0.000000
--------------------------
Free energy:   -112.968328
Extrapolated:  -112.532341

Showing only first 2 kpts
 Kpt  Band  Eigenvalues  Occupancy
  0   131     -1.37756    1.25565
  0   132     -1.36866    1.21365
  0   133     -1.32607    1.00401
  0   134     -1.26268    0.69688

  1   131     -1.47318    1.62889
  1   132     -1.44362    1.53117
  1   133     -1.37255    1.23213
  1   134     -1.31365    0.94199


Fermi level: -1.32527

No gap
No difference between direct/indirect transitions

Forces in eV/Ang:
  0 Pt   -0.11854   -0.06018   -0.55149
  1 Pt    0.11856    0.06848   -0.68273
  2 Pt    0.04108    0.02371   -0.56983
  3 Pt   -0.11139   -0.07258   -0.55152
  4 Pt   -0.02630    0.03404    0.27906
  5 Pt    0.00682    0.00393    0.13983
  6 Pt    0.01788    0.01033    0.13548
  7 Pt    0.01636   -0.03982    0.27911
  8 Pt   -0.06590   -0.03815    0.44968
  9 Pt    0.02561    0.04036    0.18436
 10 Pt    0.04777    0.00198    0.18449
 11 Pt   -0.00216   -0.00126    0.26196
 12 Pt   -0.12873    0.22932    0.18533
 13 Pt    0.11482    0.06623   -0.03940
 14 Pt   -0.07818   -0.04520   -0.02995
 15 Pt    0.13442   -0.22651    0.18467
 16 O    -0.04960   -0.02918   -0.18369
 17 C     0.06397    0.03618    0.14833

System changes: positions 

Initializing position-dependent things.

Density initialized from wave functions
                                     
                                     
                                     
                                     
                                     
                                     
                                     
         O                           
             Pt     Pt               
         C                           
        Pt     Pt    Pt     Pt       
                                     
                Pt     Pt            
                                     
                 Pt     Pt           
            Pt     Pt                
                                     
             Pt     Pt               
        Pt     Pt                    
                                     
                                     
                                     
                                     
                                     

Atomic positions and initial magnetic moments

Positions:
   0 Pt     0.000000    0.000000   13.800000    ( 0.0000,  0.0000,  0.0000)
   1 Pt     2.771859    0.000000   13.800000    ( 0.0000,  0.0000,  0.0000)
   2 Pt     1.385929    2.400500   13.800000    ( 0.0000,  0.0000,  0.0000)
   3 Pt     4.157788    2.400500   13.800000    ( 0.0000,  0.0000,  0.0000)
   4 Pt     1.384761    0.796311   16.037283    ( 0.0000,  0.0000,  0.0000)
   5 Pt     4.160100    0.801498   16.077056    ( 0.0000,  0.0000,  0.0000)
   6 Pt     2.762771    3.195418   16.068773    ( 0.0000,  0.0000,  0.0000)
   7 Pt     5.539795    3.201586   16.037282    ( 0.0000,  0.0000,  0.0000)
   8 Pt     5.541220    1.598867   18.354365    ( 0.0000,  0.0000,  0.0000)
   9 Pt     2.784791    1.609007   18.330268    ( 0.0000,  0.0000,  0.0000)
  10 Pt     6.943636    4.007706   18.330298    ( 0.0000,  0.0000,  0.0000)
  11 Pt     4.170151    4.007969   18.300108    ( 0.0000,  0.0000,  0.0000)
  12 Pt     0.015575    0.000756   20.755743    ( 0.0000,  0.0000,  0.0000)
  13 Pt     2.806447    0.019975   20.609760    ( 0.0000,  0.0000,  0.0000)
  14 Pt     1.361842    2.386606   20.614606    ( 0.0000,  0.0000,  0.0000)
  15 Pt     4.166257    2.413540   20.755480    ( 0.0000,  0.0000,  0.0000)
  16 O      0.690414   -1.202576   23.415703    ( 0.0000,  0.0000,  0.0000)
  17 C      0.673407   -1.211785   22.231378    ( 0.0000,  0.0000,  0.0000)

Unit cell:
           periodic     x           y           z      points  spacing
  1. axis:    yes    5.543717    0.000000    0.000000    27     0.1778
  2. axis:    yes    2.771859    4.801000    0.000000    27     0.1778
  3. axis:    yes    0.000000    0.000000   36.789639   175     0.2102

  Lengths:   5.543717   5.543717  36.789639
  Angles:   90.000000  90.000000  60.000000

Effective grid spacing dv^(1/3) = 0.1973

     iter     time        total  log10-change:
                         energy   eigst   dens
iter:   1 10:54:14  -114.872837   -2.22
iter:   2 10:55:16  -137.165831   -1.29  -1.83
iter:   3 10:56:22  -114.048557   -1.91  -1.35
iter:   4 10:57:29  -112.591537   -2.55  -2.02
iter:   5 10:58:39  -112.572865   -3.72  -2.85
iter:   6 10:59:49  -112.570815c  -4.52  -3.00
iter:   7 11:00:59  -112.567449c  -4.52  -2.99
iter:   8 11:02:09  -112.565338c  -4.41  -3.16
iter:   9 11:03:24  -112.563132c  -5.30  -3.20
iter:  10 11:04:34  -112.562575c  -5.51  -3.41
iter:  11 11:42:51  -112.562548c  -5.55  -3.59
iter:  12 11:43:52  -112.562484c  -5.84  -3.74
iter:  13 11:49:05  -112.562255c  -5.93  -3.64
iter:  14 11:50:05  -112.562116c  -6.45  -3.92
iter:  15 11:51:16  -112.562016c  -6.59  -3.97
iter:  16 11:52:26  -112.562043c  -6.91  -4.19c
iter:  17 11:53:39  -112.562057c  -7.06  -4.31c
iter:  18 11:54:56  -112.562100c  -7.20  -4.44c
iter:  19 11:56:16  -112.562100c  -7.49c -4.52c

Converged after 19 iterations.

Dipole moment: (-0.484308, -0.031983, -0.140733) |e|*Ang

Energy contributions relative to reference atoms: (reference = -8009074.284696)

Kinetic:       -111.893399
Potential:      +77.404499
External:        +0.000000
XC:             -69.171351
Entropy (-ST):   -0.868755
Local:           -8.467472
SIC:             +0.000000
--------------------------
Free energy:   -112.996477
Extrapolated:  -112.562100

Showing only first 2 kpts
 Kpt  Band  Eigenvalues  Occupancy
  0   131     -1.38171    1.26023
  0   132     -1.37364    1.22223
  0   133     -1.33011    1.00839
  0   134     -1.26417    0.68928

  1   131     -1.47723    1.63153
  1   132     -1.45119    1.54677
  1   133     -1.37308    1.21957
  1   134     -1.31718    0.94376


Fermi level: -1.32844

No gap
No difference between direct/indirect transitions

Forces in eV/Ang:
  0 Pt   -0.11529   -0.05735   -0.51880
  1 Pt    0.11560    0.06677   -0.64307
  2 Pt    0.03801    0.02194   -0.52957
  3 Pt   -0.10731   -0.07118   -0.51883
  4 Pt   -0.02336    0.02974    0.29768
  5 Pt    0.01013    0.00584    0.17510
  6 Pt    0.02080    0.01202    0.15839
  7 Pt    0.01411   -0.03514    0.29773
  8 Pt   -0.02428   -0.01413    0.30548
  9 Pt   -0.01296    0.03543    0.12940
 10 Pt    0.02420   -0.02897    0.12951
 11 Pt    0.01133    0.00650    0.26133
 12 Pt   -0.10368    0.18632    0.13771
 13 Pt    0.03686    0.02121    0.01687
 14 Pt   -0.00526   -0.00312    0.03500
 15 Pt    0.10970   -0.18329    0.13711
 16 O    -0.04560   -0.02698   -0.16388
 17 C     0.05923    0.03341    0.09836

System changes: positions 

Initializing position-dependent things.

Density initialized from wave functions
                                     
                                     
                                     
                                     
                                     
                                     
                                     
         O                           
             Pt     Pt               
         C                           
        Pt     Pt    Pt     Pt       
                                     
                Pt     Pt            
                                     
                 Pt     Pt           
            Pt     Pt                
                                     
             Pt     Pt               
        Pt     Pt                    
                                     
                                     
                                     
                                     
                                     

Atomic positions and initial magnetic moments

Positions:
   0 Pt     0.000000    0.000000   13.800000    ( 0.0000,  0.0000,  0.0000)
   1 Pt     2.771859    0.000000   13.800000    ( 0.0000,  0.0000,  0.0000)
   2 Pt     1.385929    2.400500   13.800000    ( 0.0000,  0.0000,  0.0000)
   3 Pt     4.157788    2.400500   13.800000    ( 0.0000,  0.0000,  0.0000)
   4 Pt     1.382004    0.798817   16.060402    ( 0.0000,  0.0000,  0.0000)
   5 Pt     4.161014    0.802024   16.093152    ( 0.0000,  0.0000,  0.0000)
   6 Pt     2.763370    3.195764   16.082591    ( 0.0000,  0.0000,  0.0000)
   7 Pt     5.540590    3.197942   16.060406    ( 0.0000,  0.0000,  0.0000)
   8 Pt     5.529777    1.592239   18.420830    ( 0.0000,  0.0000,  0.0000)
   9 Pt     2.792612    1.616445   18.359012    ( 0.0000,  0.0000,  0.0000)
  10 Pt     6.953993    4.010761   18.359065    ( 0.0000,  0.0000,  0.0000)
  11 Pt     4.171011    4.008464   18.333143    ( 0.0000,  0.0000,  0.0000)
  12 Pt     0.017056    0.005421   20.826403    ( 0.0000,  0.0000,  0.0000)
  13 Pt     2.823204    0.029643   20.607737    ( 0.0000,  0.0000,  0.0000)
  14 Pt     1.352951    2.381468   20.616214    ( 0.0000,  0.0000,  0.0000)
  15 Pt     4.171065    2.412433   20.825998    ( 0.0000,  0.0000,  0.0000)
  16 O      0.684154   -1.206465   23.479101    ( 0.0000,  0.0000,  0.0000)
  17 C      0.675274   -1.210842   22.296443    ( 0.0000,  0.0000,  0.0000)

Unit cell:
           periodic     x           y           z      points  spacing
  1. axis:    yes    5.543717    0.000000    0.000000    27     0.1778
  2. axis:    yes    2.771859    4.801000    0.000000    27     0.1778
  3. axis:    yes    0.000000    0.000000   36.789639   175     0.2102

  Lengths:   5.543717   5.543717  36.789639
  Angles:   90.000000  90.000000  60.000000

Effective grid spacing dv^(1/3) = 0.1973

     iter     time        total  log10-change:
                         energy   eigst   dens
iter:   1 11:57:59  -131.220620   -1.36
iter:   2 11:59:23  -221.895173   -0.13  -1.41
iter:   3 12:00:47  -118.710087   -1.11  -0.99
iter:   4 12:02:12  -113.161360   -1.85  -1.79
iter:   5 12:03:34  -112.837659   -2.89  -2.21
iter:   6 12:05:00  -112.812411   -3.52  -2.41
iter:   7 12:06:24  -112.741460c  -3.46  -2.36
iter:   8 12:07:49  -112.666055   -3.27  -2.54
iter:   9 12:09:11  -112.640119c  -4.14  -2.63
iter:  10 12:10:36  -112.636394c  -4.71  -2.80
iter:  11 12:11:59  -112.630893c  -4.29  -2.86
iter:  12 12:13:21  -112.631383c  -4.99  -3.18
iter:  13 12:14:46  -112.640778c  -4.71  -3.18
iter:  14 12:16:08  -112.628620c  -4.83  -2.92
iter:  15 12:17:32  -112.628556c  -5.52  -3.58
iter:  16 12:18:52  -112.628611c  -5.99  -3.68
iter:  17 12:20:17  -112.628576c  -5.99  -3.74
iter:  18 12:21:41  -112.628611c  -6.26  -3.82
iter:  19 12:23:07  -112.628474c  -6.26  -3.95
iter:  20 12:24:33  -112.628658c  -6.57  -4.11c
iter:  21 12:25:55  -112.628555c  -7.17  -3.90
iter:  22 12:27:18  -112.628603c  -7.05  -4.10c
iter:  23 12:28:38  -112.628621c  -7.26  -4.15c
iter:  24 12:30:10  -112.628598c  -7.78c -4.39c

Converged after 24 iterations.

Dipole moment: (-0.503784, -0.381438, -0.139787) |e|*Ang

Energy contributions relative to reference atoms: (reference = -8009074.284696)

Kinetic:       -118.670730
Potential:      +83.140782
External:        +0.000000
XC:             -68.218849
Entropy (-ST):   -0.858105
Local:           -8.450748
SIC:             +0.000000
--------------------------
Free energy:   -113.057650
Extrapolated:  -112.628598

Showing only first 2 kpts
 Kpt  Band  Eigenvalues  Occupancy
  0   131     -1.41179    1.35042
  0   132     -1.37487    1.17933
  0   133     -1.34286    1.02124
  0   134     -1.26766    0.65942

  1   131     -1.49002    1.63934
  1   132     -1.47170    1.58200
  1   133     -1.37462    1.17814
  1   134     -1.32535    0.93379


Fermi level: -1.33861

No gap
No difference between direct/indirect transitions

Forces in eV/Ang:
  0 Pt   -0.09634   -0.04420   -0.38975
  1 Pt    0.09722    0.05614   -0.48821
  2 Pt    0.02305    0.01330   -0.38321
  3 Pt   -0.08643   -0.06133   -0.38978
  4 Pt   -0.00016    0.00146    0.26429
  5 Pt    0.00665    0.00383    0.21500
  6 Pt    0.02896    0.01673    0.17559
  7 Pt    0.00123   -0.00095    0.26433
  8 Pt    0.05053    0.02902   -0.07595
  9 Pt   -0.09085    0.01798   -0.01465
 10 Pt   -0.02988   -0.08778   -0.01462
 11 Pt    0.04075    0.02341    0.22013
 12 Pt   -0.00943    0.02756    0.05553
 13 Pt   -0.15490   -0.08953    0.21864
 14 Pt    0.19443    0.11210    0.27205
 15 Pt    0.01929   -0.02220    0.05509
 16 O    -0.02998   -0.01808    0.29964
 17 C     0.03810    0.02122   -0.05283

System changes: positions 

Initializing position-dependent things.

Density initialized from wave functions
                                     
                                     
                                     
                                     
                                     
                                     
                                     
         O                           
                    Pt               
         C   Pt                      
        Pt     Pt    Pt     Pt       
                                     
                Pt     Pt            
                                     
                 Pt     Pt           
            Pt     Pt                
                                     
             Pt     Pt               
        Pt     Pt                    
                                     
                                     
                                     
                                     
                                     

Atomic positions and initial magnetic moments

Positions:
   0 Pt     0.000000    0.000000   13.800000    ( 0.0000,  0.0000,  0.0000)
[...]
                                     
                                     
                                     
                                     
                                     
                                     
         O                           
             Pt     Pt               
         C                           
        Pt     Pt    Pt     Pt       
                                     
                Pt     Pt            
                 Pt     Pt           
                                     
            Pt     Pt                
                                     
             Pt     Pt               
        Pt     Pt                    
                                     
                                     
                                     
                                     
                                     

Atomic positions and initial magnetic moments

Positions:
   0 Pt     0.000000    0.000000   13.800000    ( 0.0000,  0.0000,  0.0000)
   1 Pt     2.771859    0.000000   13.800000    ( 0.0000,  0.0000,  0.0000)
   2 Pt     1.385929    2.400500   13.800000    ( 0.0000,  0.0000,  0.0000)
   3 Pt     4.157788    2.400500   13.800000    ( 0.0000,  0.0000,  0.0000)
   4 Pt     1.384453    0.798274   16.118164    ( 0.0000,  0.0000,  0.0000)
   5 Pt     4.161339    0.802196   16.146041    ( 0.0000,  0.0000,  0.0000)
   6 Pt     2.771269    3.200316   16.132996    ( 0.0000,  0.0000,  0.0000)
   7 Pt     5.541364    3.200289   16.118185    ( 0.0000,  0.0000,  0.0000)
   8 Pt     5.538169    1.596982   18.498091    ( 0.0000,  0.0000,  0.0000)
   9 Pt     2.788828    1.614148   18.436464    ( 0.0000,  0.0000,  0.0000)
  10 Pt     6.950155    4.008558   18.436561    ( 0.0000,  0.0000,  0.0000)
  11 Pt     4.169092    4.007307   18.439246    ( 0.0000,  0.0000,  0.0000)
  12 Pt     0.022451    0.023683   20.915825    ( 0.0000,  0.0000,  0.0000)
  13 Pt     2.814820    0.024685   20.721262    ( 0.0000,  0.0000,  0.0000)
  14 Pt     1.388846    2.402067   20.733793    ( 0.0000,  0.0000,  0.0000)
  15 Pt     4.189737    2.407697   20.915059    ( 0.0000,  0.0000,  0.0000)
  16 O      0.671588   -1.214313   23.558644    ( 0.0000,  0.0000,  0.0000)
  17 C      0.679690   -1.208796   22.375328    ( 0.0000,  0.0000,  0.0000)

Unit cell:
           periodic     x           y           z      points  spacing
  1. axis:    yes    5.543717    0.000000    0.000000    27     0.1778
  2. axis:    yes    2.771859    4.801000    0.000000    27     0.1778
  3. axis:    yes    0.000000    0.000000   36.789639   175     0.2102

  Lengths:   5.543717   5.543717  36.789639
  Angles:   90.000000  90.000000  60.000000

Effective grid spacing dv^(1/3) = 0.1973

     iter     time        total  log10-change:
                         energy   eigst   dens
iter:   1 18:37:53  -112.768966   -3.65
iter:   2 18:39:15  -113.716173   -2.91  -2.60
iter:   3 18:40:41  -112.715528   -3.26  -2.00
iter:   4 18:42:12  -112.711965   -4.62  -3.29
iter:   5 18:43:44  -112.711747c  -5.62  -3.68
iter:   6 18:45:10  -112.711684c  -6.10  -3.68
iter:   7 18:46:40  -112.711580c  -6.39  -3.94
iter:   8 18:48:07  -112.711583c  -6.64  -4.05c
iter:   9 18:49:31  -112.711535c  -6.73  -4.28c
iter:  10 18:51:00  -112.711547c  -7.23  -4.39c
iter:  11 18:52:29  -112.711533c  -7.43c -4.40c

Converged after 11 iterations.

Dipole moment: (-1.170054, -0.795874, -0.136346) |e|*Ang

Energy contributions relative to reference atoms: (reference = -8009074.284696)

Kinetic:       -138.571012
Potential:     +100.210200
External:        +0.000000
XC:             -65.503600
Entropy (-ST):   -0.853608
Local:           -8.420316
SIC:             +0.000000
--------------------------
Free energy:   -113.138337
Extrapolated:  -112.711533

Showing only first 2 kpts
 Kpt  Band  Eigenvalues  Occupancy
  0   131     -1.46077    1.47323
  0   132     -1.41330    1.27003
  0   133     -1.36911    1.05588
  0   134     -1.31914    0.80847

  1   131     -1.51123    1.64492
  1   132     -1.48375    1.55745
  1   133     -1.40457    1.22907
  1   134     -1.33459    0.88384


Fermi level: -1.35792

No gap
No difference between direct/indirect transitions

Forces in eV/Ang:
  0 Pt   -0.06946   -0.02621   -0.04046
  1 Pt    0.07110    0.04100   -0.12252
  2 Pt    0.01535    0.00888   -0.02991
  3 Pt   -0.05738   -0.04702   -0.04052
  4 Pt   -0.00504    0.00517    0.05661
  5 Pt    0.01103    0.00631    0.06568
  6 Pt   -0.02486   -0.01439    0.06886
  7 Pt    0.00199   -0.00696    0.05664
  8 Pt    0.02292    0.01320   -0.02896
  9 Pt   -0.01188    0.00868   -0.01121
 10 Pt    0.00171   -0.01486   -0.01113
 11 Pt    0.03799    0.02178   -0.06493
 12 Pt    0.02345   -0.02335    0.01887
 13 Pt    0.03713    0.02118    0.02734
 14 Pt   -0.03187   -0.01868    0.01924
 15 Pt   -0.00835    0.03167    0.01906
 16 O    -0.00145   -0.00096   -0.00179
 17 C    -0.00760   -0.00456   -0.02741

System changes: positions 

Initializing position-dependent things.

Density initialized from wave functions
                                     
                                     
                                     
                                     
                                     
                                     
                                     
         O                           
             Pt     Pt               
         C                           
        Pt     Pt    Pt     Pt       
                                     
                Pt     Pt            
                 Pt     Pt           
                                     
            Pt     Pt                
                                     
             Pt     Pt               
        Pt     Pt                    
                                     
                                     
                                     
                                     
                                     

Atomic positions and initial magnetic moments

Positions:
   0 Pt     0.000000    0.000000   13.800000    ( 0.0000,  0.0000,  0.0000)
   1 Pt     2.771859    0.000000   13.800000    ( 0.0000,  0.0000,  0.0000)
   2 Pt     1.385929    2.400500   13.800000    ( 0.0000,  0.0000,  0.0000)
   3 Pt     4.157788    2.400500   13.800000    ( 0.0000,  0.0000,  0.0000)
   4 Pt     1.384720    0.798537   16.119211    ( 0.0000,  0.0000,  0.0000)
   5 Pt     4.161714    0.802409   16.148526    ( 0.0000,  0.0000,  0.0000)
   6 Pt     2.770088    3.199632   16.136619    ( 0.0000,  0.0000,  0.0000)
   7 Pt     5.541728    3.200385   16.119234    ( 0.0000,  0.0000,  0.0000)
   8 Pt     5.540725    1.598451   18.498846    ( 0.0000,  0.0000,  0.0000)
   9 Pt     2.788726    1.613136   18.440689    ( 0.0000,  0.0000,  0.0000)
  10 Pt     6.949238    4.008962   18.440793    ( 0.0000,  0.0000,  0.0000)
  11 Pt     4.169249    4.007390   18.438938    ( 0.0000,  0.0000,  0.0000)
  12 Pt     0.023732    0.024019   20.916620    ( 0.0000,  0.0000,  0.0000)
  13 Pt     2.817105    0.025985   20.730425    ( 0.0000,  0.0000,  0.0000)
  14 Pt     1.387810    2.401449   20.740947    ( 0.0000,  0.0000,  0.0000)
  15 Pt     4.190684    2.408609   20.915849    ( 0.0000,  0.0000,  0.0000)
  16 O      0.671568   -1.214345   23.558397    ( 0.0000,  0.0000,  0.0000)
  17 C      0.678727   -1.209380   22.375007    ( 0.0000,  0.0000,  0.0000)

Unit cell:
           periodic     x           y           z      points  spacing
  1. axis:    yes    5.543717    0.000000    0.000000    27     0.1778
  2. axis:    yes    2.771859    4.801000    0.000000    27     0.1778
  3. axis:    yes    0.000000    0.000000   36.789639   175     0.2102

  Lengths:   5.543717   5.543717  36.789639
  Angles:   90.000000  90.000000  60.000000

Effective grid spacing dv^(1/3) = 0.1973

     iter     time        total  log10-change:
                         energy   eigst   dens
iter:   1 18:54:48  -112.737560   -3.67
iter:   2 18:56:47  -112.982435   -3.40  -2.81
iter:   3 18:58:30  -112.720158   -3.71  -2.29
iter:   4 19:00:11  -112.712706   -4.98  -3.11
iter:   5 19:01:57  -112.712302c  -5.63  -3.61
iter:   6 19:03:41  -112.712377c  -5.97  -3.74
iter:   7 19:05:41  -112.712248c  -6.21  -3.86
iter:   8 19:07:36  -112.712225c  -6.48  -4.01c
iter:   9 19:09:21  -112.712442c  -6.44  -4.09c
iter:  10 19:11:06  -112.712129c  -6.73  -3.76
iter:  11 19:12:47  -112.712133c  -7.61c -4.30c

Converged after 11 iterations.

Dipole moment: (-1.204102, -0.832919, -0.136388) |e|*Ang

Energy contributions relative to reference atoms: (reference = -8009074.284696)

Kinetic:       -138.960181
Potential:     +100.526829
External:        +0.000000
XC:             -65.431121
Entropy (-ST):   -0.853863
Local:           -8.420729
SIC:             +0.000000
--------------------------
Free energy:   -113.139065
Extrapolated:  -112.712133

Showing only first 2 kpts
 Kpt  Band  Eigenvalues  Occupancy
  0   131     -1.46124    1.46949
  0   132     -1.41687    1.27990
  0   133     -1.37067    1.05651
  0   134     -1.32370    0.82360

  1   131     -1.51244    1.64426
  1   132     -1.48406    1.55358
  1   133     -1.40804    1.23873
  1   134     -1.33533    0.88047


Fermi level: -1.35935

No gap
No difference between direct/indirect transitions

Forces in eV/Ang:
  0 Pt   -0.06941   -0.02669   -0.02195
  1 Pt    0.07123    0.04108   -0.10489
  2 Pt    0.01544    0.00893   -0.01174
  3 Pt   -0.05776   -0.04673   -0.02200
  4 Pt   -0.00720   -0.00224    0.03115
  5 Pt    0.00773    0.00442    0.03515
  6 Pt   -0.01143   -0.00664    0.02577
  7 Pt   -0.00550   -0.00513    0.03117
  8 Pt   -0.00503   -0.00293   -0.02537
  9 Pt   -0.00058    0.02058   -0.02303
 10 Pt    0.01765   -0.01097   -0.02298
 11 Pt    0.03736    0.02144   -0.04944
 12 Pt    0.01137   -0.02214   -0.00129
 13 Pt    0.02169    0.01232   -0.03226
 14 Pt   -0.01318   -0.00783   -0.02248
 15 Pt   -0.01339    0.02072   -0.00109
 16 O    -0.00734   -0.00438    0.01179
 17 C    -0.00706   -0.00429   -0.01801

System changes: positions 

Initializing position-dependent things.

Density initialized from wave functions
                                     
                                     
                                     
                                     
                                     
                                     
                                     
         O                           
             Pt     Pt               
         C                           
        Pt     Pt    Pt     Pt       
                                     
                Pt     Pt            
                 Pt     Pt           
                                     
            Pt     Pt                
                                     
             Pt     Pt               
        Pt     Pt                    
                                     
                                     
                                     
                                     
                                     

Atomic positions and initial magnetic moments

Positions:
   0 Pt     0.000000    0.000000   13.800000    ( 0.0000,  0.0000,  0.0000)
   1 Pt     2.771859    0.000000   13.800000    ( 0.0000,  0.0000,  0.0000)
   2 Pt     1.385929    2.400500   13.800000    ( 0.0000,  0.0000,  0.0000)
   3 Pt     4.157788    2.400500   13.800000    ( 0.0000,  0.0000,  0.0000)
   4 Pt     1.384413    0.798754   16.119018    ( 0.0000,  0.0000,  0.0000)
   5 Pt     4.162042    0.802597   16.148582    ( 0.0000,  0.0000,  0.0000)
   6 Pt     2.769071    3.199044   16.136741    ( 0.0000,  0.0000,  0.0000)
   7 Pt     5.541762    3.200013   16.119041    ( 0.0000,  0.0000,  0.0000)
   8 Pt     5.540856    1.598529   18.495121    ( 0.0000,  0.0000,  0.0000)
   9 Pt     2.788485    1.613738   18.437061    ( 0.0000,  0.0000,  0.0000)
  10 Pt     6.949642    4.008448   18.437166    ( 0.0000,  0.0000,  0.0000)
  11 Pt     4.170619    4.008178   18.433005    ( 0.0000,  0.0000,  0.0000)
  12 Pt     0.023958    0.022840   20.914029    ( 0.0000,  0.0000,  0.0000)
  13 Pt     2.818533    0.026806   20.726353    ( 0.0000,  0.0000,  0.0000)
  14 Pt     1.385617    2.400180   20.736706    ( 0.0000,  0.0000,  0.0000)
  15 Pt     4.189774    2.409396   20.913278    ( 0.0000,  0.0000,  0.0000)
  16 O      0.671858   -1.214160   23.555929    ( 0.0000,  0.0000,  0.0000)
  17 C      0.678404   -1.209554   22.372344    ( 0.0000,  0.0000,  0.0000)

Unit cell:
           periodic     x           y           z      points  spacing
  1. axis:    yes    5.543717    0.000000    0.000000    27     0.1778
  2. axis:    yes    2.771859    4.801000    0.000000    27     0.1778
  3. axis:    yes    0.000000    0.000000   36.789639   175     0.2102

  Lengths:   5.543717   5.543717  36.789639
  Angles:   90.000000  90.000000  60.000000

Effective grid spacing dv^(1/3) = 0.1973

     iter     time        total  log10-change:
                         energy   eigst   dens
iter:   1 19:15:07  -112.810074   -3.57
iter:   2 19:17:08  -113.945158   -2.82  -2.54
iter:   3 19:19:00  -112.714700   -3.14  -1.96
iter:   4 19:20:33  -112.712966   -4.75  -3.21
iter:   5 19:21:53  -112.712673c  -5.75  -3.60
iter:   6 19:23:10  -112.712522c  -5.97  -3.64
iter:   7 19:24:26  -112.712424c  -6.03  -3.87
iter:   8 19:25:53  -112.712434c  -6.18  -4.03c
iter:   9 19:27:15  -112.712409c  -6.88  -4.02c
iter:  10 19:28:31  -112.712392c  -7.33  -4.30c
iter:  11 19:29:57  -112.712429c  -7.07  -4.34c
iter:  12 19:31:09  -112.712397c  -7.41c -4.46c

Converged after 12 iterations.

Dipole moment: (-1.180752, -0.816172, -0.135846) |e|*Ang

Energy contributions relative to reference atoms: (reference = -8009074.284696)

Kinetic:       -138.414915
Potential:     +100.071095
External:        +0.000000
XC:             -65.521771
Entropy (-ST):   -0.854188
Local:           -8.419712
SIC:             +0.000000
--------------------------
Free energy:   -113.139491
Extrapolated:  -112.712397

Showing only first 2 kpts
 Kpt  Band  Eigenvalues  Occupancy
  0   131     -1.45858    1.46296
  0   132     -1.41543    1.27780
  0   133     -1.36923    1.05423
  0   134     -1.32144    0.81741

  1   131     -1.51114    1.64333
  1   132     -1.48325    1.55419
  1   133     -1.40651    1.23616
  1   134     -1.33464    0.88190


Fermi level: -1.35837

No gap
No difference between direct/indirect transitions

Forces in eV/Ang:
  0 Pt   -0.07046   -0.02654   -0.02847
  1 Pt    0.07199    0.04152   -0.11072
  2 Pt    0.01449    0.00839   -0.01859
  3 Pt   -0.05816   -0.04772   -0.02853
  4 Pt   -0.00261   -0.00703    0.01071
  5 Pt    0.00285    0.00160    0.01828
  6 Pt   -0.00436   -0.00257    0.00764
  7 Pt   -0.00736    0.00122    0.01072
  8 Pt   -0.00669   -0.00393   -0.00310
  9 Pt    0.00911    0.01534    0.01333
 10 Pt    0.01799    0.00002    0.01336
 11 Pt    0.02567    0.01468   -0.00647
 12 Pt    0.00860   -0.00883   -0.00363
 13 Pt    0.01260    0.00702   -0.00268
 14 Pt    0.00065    0.00011    0.01086
 15 Pt   -0.00315    0.01151   -0.00351
 16 O    -0.00796   -0.00480    0.00340
 17 C     0.00099    0.00039    0.01405

Writing to outputs/co_on_bridge.gpw (mode='')

Timing:                                      incl.     excl.
-------------------------------------------------------------------
Density initialized from wave functions:    93.579    93.578   0.1% |
 Symmetrize density:                         0.001     0.001   0.0% |
Forces:                                    969.860   969.860   0.9% |
Hamiltonian:                                24.586     0.052   0.0% |
 Atomic:                                    15.273     0.046   0.0% |
  XC Correction:                            15.227    15.227   0.0% |
 Calculate atomic Hamiltonians:              3.813     3.813   0.0% |
 Communicate:                                0.000     0.000   0.0% |
 Initialize Hamiltonian:                     0.002     0.002   0.0% |
 Poisson:                                    0.063     0.063   0.0% |
 XC 3D grid:                                 5.382     5.382   0.0% |
LCAO initialization:                        72.644     0.106   0.0% |
 LCAO eigensolver:                           2.222     0.001   0.0% |
  Calculate projections:                     0.039     0.039   0.0% |
  DenseAtomicCorrection:                     0.084     0.084   0.0% |
  Distribute overlap matrix:                 0.003     0.003   0.0% |
  Orbital Layouts:                           0.462     0.462   0.0% |
  Potential matrix:                          1.612     1.612   0.0% |
  Sum over cells:                            0.020     0.020   0.0% |
 LCAO to grid:                              69.116    69.116   0.1% |
 Set positions (LCAO WFS):                   1.199     0.202   0.0% |
  Basic WFS set positions:                   0.000     0.000   0.0% |
  Basis functions set positions:             0.000     0.000   0.0% |
  P tci:                                     0.782     0.782   0.0% |
  ST tci:                                    0.202     0.202   0.0% |
  mktci:                                     0.013     0.013   0.0% |
PWDescriptor:                                0.251     0.251   0.0% |
Redistribute:                                0.364     0.364   0.0% |
SCF-cycle:                               105149.000     3.597   0.0% |
 Davidson:                               99610.435 23294.586  21.9% |--------|
  Apply H:                                9005.029  8953.642   8.4% |--|
   HMM T:                                   51.387    51.387   0.0% |
  Subspace diag:                         16194.952     1.516   0.0% |
   calc_h_matrix:                        12404.121   577.170   0.5% |
    Apply H:                             11826.952 11738.014  11.0% |---|
     HMM T:                                 88.938    88.938   0.1% |
   diagonalize:                            121.445   121.445   0.1% |
   rotate_psi:                            3667.870  3667.870   3.4% ||
  calc. matrices:                        41859.031 20087.119  18.9% |-------|
   Apply H:                              21771.913 20765.698  19.5% |-------|
    HMM T:                                1006.215  1006.215   0.9% |
  diagonalize:                            6773.676  6773.676   6.4% |--|
  rotate_psi:                             2483.160  2483.160   2.3% ||
 Density:                                 3816.282     0.010   0.0% |
  Atomic density matrices:                   8.973     8.973   0.0% |
  Mix:                                      65.446    65.446   0.1% |
  Multipole moments:                         0.150     0.150   0.0% |
  Pseudo density:                         3741.704  3741.679   3.5% ||
   Symmetrize density:                       0.025     0.025   0.0% |
 Hamiltonian:                              470.410     0.972   0.0% |
  Atomic:                                  286.795     0.842   0.0% |
   XC Correction:                          285.953   285.953   0.3% |
  Calculate atomic Hamiltonians:            77.748    77.748   0.1% |
  Communicate:                               0.004     0.004   0.0% |
  Poisson:                                   1.172     1.172   0.0% |
  XC 3D grid:                              103.719   103.719   0.1% |
 Orthonormalize:                          1248.276     0.104   0.0% |
  calc_s_matrix:                            45.549    45.549   0.0% |
  inverse-cholesky:                          1.948     1.948   0.0% |
  projections:                              93.628    93.628   0.1% |
  rotate_psi_s:                           1107.047  1107.047   1.0% |
Set symmetry:                                0.000     0.000   0.0% |
Other:                                     128.801   128.801   0.1% |
-------------------------------------------------------------------
Total:                                             106439.084 100.0%

Memory usage: 1.67 GiB
Date: Wed Feb 18 19:31:19 2026
