18
Lattice="5.5437171645025325 0.0 0.0 2.7718585822512662 4.800999895855028 0.0 0.0 0.0 36.789639165669996" Properties=species:S:1:pos:R:3:move_mask:L:1:tags:I:1:magmoms:R:1:forces:R:3 energy=-112.71239669616799 free_energy=-113.13949065980005 dipole="-1.180752231203957 -0.8161717483108945 -0.13584645930558664" magmom=0.0 pbc="T T T"
Pt       0.00000000       0.00000000      13.80000000  F        4       0.00000000      -0.07046115      -0.02653527      -0.02847336
Pt       2.77185858       0.00000000      13.80000000  F        4       0.00000000       0.07198876       0.04151525      -0.11071633
Pt       1.38592929       2.40049995      13.80000000  F        4       0.00000000       0.01449099       0.00838563      -0.01858709
Pt       4.15778787       2.40049995      13.80000000  F        4       0.00000000      -0.05816232      -0.04772400      -0.02853043
Pt       1.38441301       0.79875383      16.11901843  T        3       0.00000000      -0.00260707      -0.00703415       0.01070690
Pt       4.16204190       0.80259733      16.14858232  T        3       0.00000000       0.00285180       0.00159580       0.01828376
Pt       2.76907116       3.19904404      16.13674063  T        3       0.00000000      -0.00436397      -0.00257132       0.00764009
Pt       5.54176247       3.20001316      16.11904109  T        3       0.00000000      -0.00735545       0.00122355       0.01071784
Pt       5.54085557       1.59852908      18.49512112  T        2       0.00000000      -0.00668513      -0.00393118      -0.00310258
Pt       2.78848484       1.61373796      18.43706134  T        2       0.00000000       0.00911105       0.01534397       0.01333384
Pt       6.94964167       4.00844841      18.43716607  T        2       0.00000000       0.01798969       0.00001524       0.01336116
Pt       4.17061865       4.00817807      18.43300529  T        2       0.00000000       0.02566889       0.01468115      -0.00647350
Pt       0.02395848       0.02283965      20.91402943  T        1       0.00000000       0.00860340      -0.00882811      -0.00362698
Pt       2.81853258       0.02680626      20.72635288  T        1       0.00000000       0.01259652       0.00702483      -0.00267792
Pt       1.38561716       2.40017993      20.73670591  T        1       0.00000000       0.00065194       0.00011113       0.01085737
Pt       4.18977364       2.40939631      20.91327787  T        1       0.00000000      -0.00315227       0.01150820      -0.00350882
O        0.67185763      -1.21416027      23.55592891  T        0       0.00000000      -0.00795786      -0.00480093       0.00340243
C        0.67840364      -1.20955397      22.37234385  T        0       0.00000000       0.00098990       0.00038857       0.01404728
