
  ___ ___ ___ _ _ _  
 |   |   |_  | | | | 
 | | | | | . | | | | 
 |__ |  _|___|_____|  25.7.0
 |___|_|             

User:   ankitapuri@Ankitas-MacBook-Air-2.local
Date:   Tue Feb 17 11:28:01 2026
Arch:   x86_64
Pid:    38544
CWD:    /Users/ankitapuri/Desktop/cat-adsorption-dft
Python: 3.10.19
gpaw:   /opt/miniconda3/envs/gpaw-x64/lib/python3.10/site-packages/gpaw
_gpaw:  /opt/miniconda3/envs/gpaw-x64/lib/python3.10/site-packages/
        _gpaw.cpython-310-darwin.so
ase:    /opt/miniconda3/envs/gpaw-x64/lib/python3.10/site-packages/ase (version 3.27.0)
numpy:  /opt/miniconda3/envs/gpaw-x64/lib/python3.10/site-packages/numpy (version 2.2.6)
scipy:  /opt/miniconda3/envs/gpaw-x64/lib/python3.10/site-packages/scipy (version 1.15.2)
libxc:  7.0.0
units:  Angstrom and eV
cores: 1
OpenMP: True
OMP_NUM_THREADS: 1

Input parameters:
  kpts: [4 4 1]
  mode: {ecut: 400.0,
         name: pw}
  occupations: {fixmagmom: False,
                name: fermi-dirac,
                width: 0.1}
  symmetry: off
  xc: PBE

System changes: positions, numbers, cell, pbc, initial_charges, initial_magmoms 

Initialize ...

species:
  Pt:
    name: Platinum
    id: 5ed695806aff0c961dba1a84acd7f4b2
    Z: 78.0
    valence: 16
    core: 62
    charge: 0.0
    file: /opt/miniconda3/envs/gpaw-x64/lib/python3.10/site-packages/gpaw_data/setups/Pt.PBE.gz
    compensation charges: {type: gauss,
                           rc: 0.41,
                           lmax: 2}
    cutoffs: {filter: 2.26,
              core: 2.26}
    projectors:
      #              energy  rcut
      - 6s(1.00)    -5.628   1.307
      - 5p(6.00)   -56.051   1.371
      - 6p(0.00)    -0.845   1.371
      - 5d(9.00)    -6.153   1.307
      -  s          21.583   1.307
      -  d          21.058   1.307
  
    # Using partial waves for Pt as LCAO basis

  C:
    name: Carbon
    id: 4aa54d4b901d75f77cc0ea3eec22967b
    Z: 6.0
    valence: 4
    core: 2
    charge: 0.0
    file: /opt/miniconda3/envs/gpaw-x64/lib/python3.10/site-packages/gpaw_data/setups/C.PBE.gz
    compensation charges: {type: gauss,
                           rc: 0.20,
                           lmax: 2}
    cutoffs: {filter: 1.14,
              core: 1.14}
    projectors:
      #              energy  rcut
      - 2s(2.00)   -13.751   0.635
      - 2p(2.00)    -5.284   0.635
      -  s          13.461   0.635
      -  p          21.927   0.635
      -  d           0.000   0.635
  
    # Using partial waves for C as LCAO basis

  O:
    name: Oxygen
    id: 32ecd46bf208036f09c70b0ec9a88b78
    Z: 8.0
    valence: 6
    core: 2
    charge: 0.0
    file: /opt/miniconda3/envs/gpaw-x64/lib/python3.10/site-packages/gpaw_data/setups/O.PBE.gz
    compensation charges: {type: gauss,
                           rc: 0.21,
                           lmax: 2}
    cutoffs: {filter: 1.17,
              core: 0.83}
    projectors:
      #              energy  rcut
      - 2s(2.00)   -23.961   0.688
      - 2p(4.00)    -9.029   0.598
      -  s           3.251   0.688
      -  p          18.182   0.598
      -  d           0.000   0.619
  
    # Using partial waves for O as LCAO basis

Reference energy: -8009074.284696  # eV

Spin-paired calculation

Convergence criteria:
 Maximum [total energy] change in last 3 cyles: 0.0005 eV / valence electron
 Maximum integral of absolute [dens]ity change: 0.0001 electrons / valence electron
 Maximum integral of absolute [eigenst]ate change: 4e-08 eV^2 / valence electron
 Maximum number of scf [iter]ations: 333
 (Square brackets indicate name in SCF output, whereas a 'c' in
 the SCF output indicates the quantity has converged.)

Symmetries present (total): 1

  ( 1  0  0)
  ( 0  1  0)
  ( 0  0  1)

16 k-points: 4 x 4 x 1 Monkhorst-Pack grid
16 k-points in the irreducible part of the Brillouin zone
       k-points in crystal coordinates                weights
   0:    -0.37500000   -0.37500000    0.00000000          1/16
   1:    -0.37500000   -0.12500000    0.00000000          1/16
   2:    -0.37500000    0.12500000    0.00000000          1/16
   3:    -0.37500000    0.37500000    0.00000000          1/16
   4:    -0.12500000   -0.37500000    0.00000000          1/16
   5:    -0.12500000   -0.12500000    0.00000000          1/16
   6:    -0.12500000    0.12500000    0.00000000          1/16
   7:    -0.12500000    0.37500000    0.00000000          1/16
   8:     0.12500000   -0.37500000    0.00000000          1/16
   9:     0.12500000   -0.12500000    0.00000000          1/16
          ...
  15:     0.37500000    0.37500000    0.00000000          1/16

Wave functions: Plane wave expansion
  Cutoff energy: 400.000 eV
  Number of coefficients (min, max): 17703, 17847
  Pulay-stress correction: 0.000000 eV/Ang^3 (de/decut=0.000000)
  Using FFTW library
  ScaLapack parameters: grid=1x1, blocksize=None
  Wavefunction extrapolation:
    Improved wavefunction reuse through dual PAW basis 

Occupation numbers: Fermi-Dirac:
  width: 0.1000  # eV
 

Eigensolver
   Davidson(niter=2) 

Densities:
  Coarse grid: 27*27*175 grid
  Fine grid: 54*54*350 grid
  Total Charge: 0.000000 

Density mixing:
  Method: separate
  Backend: pulay
  Linear mixing parameter: 0.05
  old densities: 5
  Damping of long wavelength oscillations: 50 

Hamiltonian:
  XC and Coulomb potentials evaluated on a 54*54*350 grid
  Using the PBE Exchange-Correlation functional
  External potential:
    NoExternalPotential
 

XC parameters: PBE with 2 nearest neighbor stencil

Memory estimate:
  Process memory now: 187.60 MiB
  Calculator: 921.57 MiB
    Density: 63.47 MiB
      Arrays: 25.31 MiB
      Localized functions: 28.43 MiB
      Mixer: 9.73 MiB
    Hamiltonian: 17.31 MiB
      Arrays: 16.55 MiB
      XC: 0.00 MiB
      Poisson: 0.00 MiB
      vbar: 0.77 MiB
    Wavefunctions: 840.78 MiB
      Arrays psit_nG: 714.58 MiB
      Eigensolver: 50.13 MiB
      Projections: 12.57 MiB
      Projectors: 54.28 MiB
      PW-descriptor: 9.22 MiB

Total number of cores used: 1
OpenMP threads: 8

Number of atoms: 18
Number of atomic orbitals: 200
Number of bands in calculation: 164
Number of valence electrons: 266
Bands to converge: occupied

... initialized

Initializing position-dependent things.

Density initialized from atomic densities
Creating initial wave functions:
  164 bands from LCAO basis set

                                
                                
                                
                                
                                
                                
       O                        
                                
       C    Pt     Pt           
                                
       Pt    PPt    Pt          
                                
        Pt     Pt               
                Pt    Pt        
                                
           Pt     Pt            
                                
            Pt     Pt           
       Pt     Pt                
                                
                                
                                
                                

Atomic positions and initial magnetic moments

Positions:
   0 Pt     0.000000    0.000000   13.500000    ( 0.0000,  0.0000,  0.0000)
   1 Pt     2.771859    0.000000   13.500000    ( 0.0000,  0.0000,  0.0000)
   2 Pt     1.385929    2.400500   13.500000    ( 0.0000,  0.0000,  0.0000)
   3 Pt     4.157788    2.400500   13.500000    ( 0.0000,  0.0000,  0.0000)
   4 Pt     1.385929    0.800167   15.763213    ( 0.0000,  0.0000,  0.0000)
   5 Pt     4.157788    0.800167   15.763213    ( 0.0000,  0.0000,  0.0000)
   6 Pt     2.771859    3.200667   15.763213    ( 0.0000,  0.0000,  0.0000)
   7 Pt     5.543717    3.200667   15.763213    ( 0.0000,  0.0000,  0.0000)
   8 Pt     0.000000    1.600333   18.026426    ( 0.0000,  0.0000,  0.0000)
   9 Pt     2.771859    1.600333   18.026426    ( 0.0000,  0.0000,  0.0000)
  10 Pt     1.385929    4.000833   18.026426    ( 0.0000,  0.0000,  0.0000)
  11 Pt     4.157788    4.000833   18.026426    ( 0.0000,  0.0000,  0.0000)
  12 Pt     0.000000    0.000000   20.289639    ( 0.0000,  0.0000,  0.0000)
  13 Pt     2.771859    0.000000   20.289639    ( 0.0000,  0.0000,  0.0000)
  14 Pt     1.385929    2.400500   20.289639    ( 0.0000,  0.0000,  0.0000)
  15 Pt     4.157788    2.400500   20.289639    ( 0.0000,  0.0000,  0.0000)
  16 C      0.000000    0.000000   22.139639    ( 0.0000,  0.0000,  0.0000)
  17 O      0.000000    0.000000   23.289639    ( 0.0000,  0.0000,  0.0000)

Unit cell:
           periodic     x           y           z      points  spacing
  1. axis:    yes    5.543717    0.000000    0.000000    27     0.1778
  2. axis:    yes    2.771859    4.801000    0.000000    27     0.1778
  3. axis:    yes    0.000000    0.000000   36.789639   175     0.2102

  Lengths:   5.543717   5.543717  36.789639
  Angles:   90.000000  90.000000  60.000000

Effective grid spacing dv^(1/3) = 0.1973

     iter     time        total  log10-change:
                         energy   eigst   dens
iter:   1 11:30:51  -119.998796
iter:   2 11:32:11  -118.753460   -1.16  -1.40
iter:   3 11:33:34  -123.022026   -1.70  -1.42
iter:   4 11:34:55  -116.543751   -1.83  -1.34
iter:   5 11:36:16  -113.182465   -1.76  -1.49
iter:   6 11:37:37  -113.374106   -2.19  -1.75
iter:   7 11:38:50  -113.084093   -2.03  -1.82
iter:   8 11:40:01  -112.471849   -2.91  -1.99
iter:   9 11:41:13  -112.396300   -3.38  -2.15
iter:  10 11:42:24  -112.393699c  -3.39  -2.22
iter:  11 11:43:37  -112.414286c  -2.93  -2.27
iter:  12 11:44:49  -112.300470c  -3.54  -2.37
iter:  13 11:46:06  -112.288394c  -3.82  -2.67
iter:  14 11:47:35  -112.283637c  -3.99  -2.75
iter:  15 12:05:11  -112.281089c  -4.21  -2.90
iter:  16 12:07:16  -112.280340c  -4.55  -3.06
iter:  17 12:08:36  -112.279923c  -4.95  -3.15
iter:  18 12:10:14  -112.281165c  -4.87  -3.21
iter:  19 12:11:50  -112.279919c  -5.14  -3.23
iter:  20 12:13:17  -112.280138c  -5.40  -3.47
iter:  21 12:14:40  -112.280143c  -5.50  -3.52
iter:  22 12:16:05  -112.280327c  -5.43  -3.63
iter:  23 12:17:33  -112.280196c  -5.54  -3.81
iter:  24 12:18:44  -112.280301c  -5.97  -3.96
iter:  25 12:19:54  -112.280205c  -6.44  -3.98
iter:  26 12:21:03  -112.280164c  -6.53  -4.10c
iter:  27 12:22:13  -112.280157c  -6.56  -4.22c
iter:  28 12:23:25  -112.280166c  -7.03  -4.38c
iter:  29 12:24:35  -112.280187c  -7.21  -4.52c
iter:  30 12:25:47  -112.280163c  -7.34  -4.53c
iter:  31 12:26:58  -112.280201c  -7.26  -4.48c
iter:  32 12:28:11  -112.280189c  -7.79c -4.43c

Converged after 32 iterations.

Dipole moment: (-0.011651, -0.006727, 0.058137) |e|*Ang

Energy contributions relative to reference atoms: (reference = -8009074.284696)

Kinetic:        -96.308933
Potential:      +63.498215
External:        +0.000000
XC:             -70.550003
Entropy (-ST):   -0.894607
Local:           -8.472165
SIC:             +0.000000
--------------------------
Free energy:   -112.727492
Extrapolated:  -112.280189

Showing only first 2 kpts
 Kpt  Band  Eigenvalues  Occupancy
  0   131     -1.02324    1.29370
  0   132     -1.00932    1.22888
  0   133     -0.94440    0.90869
  0   134     -0.89702    0.68286

  1   131     -1.10273    1.60442
  1   132     -1.07261    1.50013
  1   133     -0.99818    1.17548
  1   134     -0.93916    0.88276


Fermi level: -0.96271

No gap
No difference between direct/indirect transitions
Writing to outputs/co_on_top.gpw (mode='')

Timing:                              incl.     excl.
-----------------------------------------------------------
Hamiltonian:                         0.854     0.002   0.0% |
 Atomic:                             0.490     0.001   0.0% |
  XC Correction:                     0.488     0.488   0.0% |
 Calculate atomic Hamiltonians:      0.184     0.184   0.0% |
 Communicate:                        0.000     0.000   0.0% |
 Initialize Hamiltonian:             0.002     0.002   0.0% |
 Poisson:                            0.004     0.004   0.0% |
 XC 3D grid:                         0.173     0.173   0.0% |
LCAO initialization:                87.646     0.113   0.0% |
 LCAO eigensolver:                   2.623     0.002   0.0% |
  Calculate projections:             0.048     0.048   0.0% |
  DenseAtomicCorrection:             0.254     0.254   0.0% |
  Distribute overlap matrix:         0.003     0.003   0.0% |
  Orbital Layouts:                   0.607     0.607   0.0% |
  Potential matrix:                  1.685     1.685   0.0% |
  Sum over cells:                    0.023     0.023   0.0% |
 LCAO to grid:                      83.506    83.506   2.3% ||
 Set positions (LCAO WFS):           1.404     0.357   0.0% |
  Basic WFS set positions:           0.000     0.000   0.0% |
  Basis functions set positions:     0.000     0.000   0.0% |
  P tci:                             0.829     0.829   0.0% |
  ST tci:                            0.204     0.204   0.0% |
  mktci:                             0.012     0.012   0.0% |
PWDescriptor:                        0.227     0.227   0.0% |
SCF-cycle:                        3517.620     0.175   0.0% |
 Davidson:                        3358.963   426.206  11.8% |----|
  Apply H:                         325.751   322.725   8.9% |---|
   HMM T:                            3.026     3.026   0.1% |
  Subspace diag:                   385.530     0.082   0.0% |
   calc_h_matrix:                  303.982    36.413   1.0% |
    Apply H:                       267.569   263.113   7.3% |--|
     HMM T:                          4.455     4.455   0.1% |
   diagonalize:                      8.117     8.117   0.2% |
   rotate_psi:                      73.349    73.349   2.0% ||
  calc. matrices:                 1942.341   421.174  11.7% |----|
   Apply H:                       1521.168  1515.326  42.0% |----------------|
    HMM T:                           5.841     5.841   0.2% |
  diagonalize:                     114.224   114.224   3.2% ||
  rotate_psi:                      164.911   164.911   4.6% |-|
 Density:                          121.589     0.001   0.0% |
  Atomic density matrices:           0.567     0.567   0.0% |
  Mix:                               3.831     3.831   0.1% |
  Multipole moments:                 0.009     0.009   0.0% |
  Pseudo density:                  117.182   117.181   3.2% ||
   Symmetrize density:               0.001     0.001   0.0% |
 Hamiltonian:                       30.231     0.058   0.0% |
  Atomic:                           17.669     0.048   0.0% |
   XC Correction:                   17.621    17.621   0.5% |
  Calculate atomic Hamiltonians:     6.195     6.195   0.2% |
  Communicate:                       0.000     0.000   0.0% |
  Poisson:                           0.059     0.059   0.0% |
  XC 3D grid:                        6.249     6.249   0.2% |
 Orthonormalize:                     6.663     0.003   0.0% |
  calc_s_matrix:                     1.371     1.371   0.0% |
  inverse-cholesky:                  0.065     0.065   0.0% |
  projections:                       3.739     3.739   0.1% |
  rotate_psi_s:                      1.483     1.483   0.0% |
Set symmetry:                        0.000     0.000   0.0% |
Other:                               2.809     2.809   0.1% |
-----------------------------------------------------------
Total:                                      3609.157 100.0%

Memory usage: 1.43 GiB
Date: Tue Feb 17 12:28:11 2026
